LAMMPS data file via write_data, version 10 Jan 2015, timestep = 100000

2048 atoms
6 atom types
1536 bonds
5 bond types
1024 angles
5 angle types

-1.2953520118742858e+00 5.2295352011873845e+01 xlo xhi
-1.2953520118742858e+00 5.2295352011873845e+01 ylo yhi
-1.2953520118742858e+00 5.2295352011873845e+01 zlo zhi

Masses

1 40
2 90
3 90
4 62
5 62
6 42

Bond Coeffs # harmonic

1 1.506 4.77
2 1.506 4.41
3 1.506 4.14
4 1.506 4.095
5 1.506 4.05

Atoms # hybrid

1806 6 3.9601280011931959e+00 3.1043519927724921e+00 2.1782428766691240e+00 453 0.0000000000000000e+00 0.0000000000000000e+00 0.0000000000000000e+00 0.0000000000000000e+00 4.5000000000000000e+00 9.0000000000000013e-01 0 0 0
404 6 1.1548306056235198e+00 -2.3209010728659951e-01 4.7939640427336263e+00 102 0.0000000000000000e+00 0.0000000000000000e+00 0.0000000000000000e+00 0.0000000000000000e+00 4.5000000000000000e+00 9.0000000000000013e-01 1 1 0
766 6 1.6510153997799972e+00 -1.0826471928860375e+00 -2.9386156728922685e-01 193 0.0000000000000000e+00 0.0000000000000000e+00 0.0000000000000000e+00 0.0000000000000000e+00 4.5000000000000000e+00 9.0000000000000013e-01 0 0 0
1807 6 5.3976696371250155e+00 5.3284877884675881e+00 4.9076264396048384e+00 453 0.0000000000000000e+00 0.0000000000000000e+00 0.0000000000000000e+00 0.0000000000000000e+00 4.5000000000000000e+00 9.0000000000000013e-01 0 0 0
1 1 1.7358732418008049e+00 4.7018214704547860e+00 -1.1077949325803982e+00 2 0.0000000000000000e+00 4.9128133239261046e-01 -1.6321009172596557e-01 1.5823574596576859e-01 5.0000000000000000e+00 5.8320000000000005e-01 0 0 1
2 6 -5.5920372212721603e-01 3.5272847021943656e+00 1.9435484145178088e+00 2 0.0000000000000000e+00 0.0000000000000000e+00 0.0000000000000000e+00 0.0000000000000000e+00 4.5000000000000000e+00 9.0000000000000013e-01 0 0 1
1703 6 1.1276472519214247e+01 2.9443073812516802e+00 5.0712512389811764e+00 427 0.0000000000000000e+00 0.0000000000000000e+00 0.0000000000000000e+00 0.0000000000000000e+00 4.5000000000000000e+00 9.0000000000000013e-01 0 0 0
1417 1 7.6440028452272220e+00 3.7382801489937556e-01 1.7024966001550594e+00 356 0.0000000000000000e+00 4.6924267993568869e-01 -2.6556272594215291e-01 4.8120371122277530e-02 5.0000000000000000e+00 5.8320000000000005e-01 0 0 0
777 1 1.0065635241765841e+01 1.0273023114354030e+00 -2.7701385133813972e-01 196 0.0000000000000000e+00 -2.1485768972864286e-01 3.5331284946101227e-01 -3.4933885622731758e-01 5.0000000000000000e+00 5.8320000000000005e-01 0 0 1
1805 1 5.6508109447101962e+00 8.7606151244499220e-03 -2.6272156682316150e-01 453 0.0000000000000000e+00 9.1306842460557994e-02 -3.1162972335578754e-01 4.3311725183958905e-01 5.0000000000000000e+00 5.8320000000000005e-01 0 0 0
945 1 7.4306803533132229e+00 2.0866051967951083e+00 -1.2684301190018485e+00 238 0.0000000000000000e+00 -5.0979340423364272e-01 1.6949670863917052e-01 6.6452290106224929e-02 5.0000000000000000e+00 5.8320000000000005e-01 1 0 1
1840 6 1.3567579606801687e+01 2.6343416598120113e+00 9.2084676500761953e-01 461 0.0000000000000000e+00 0.0000000000000000e+00 0.0000000000000000e+00 0.0000000000000000e+00 4.5000000000000000e+00 9.0000000000000013e-01 0 0 1
923 6 1.7974472595457620e+01 2.6734309577976578e+00 2.8211597611545391e+00 232 0.0000000000000000e+00 0.0000000000000000e+00 0.0000000000000000e+00 0.0000000000000000e+00 4.5000000000000000e+00 9.0000000000000013e-01 0 0 0
922 6 1.7770739108966200e+01 3.5219704484962300e-01 5.9764155991121504e-01 232 0.0000000000000000e+00 0.0000000000000000e+00 0.0000000000000000e+00 0.0000000000000000e+00 4.5000000000000000e+00 9.0000000000000013e-01 0 0 0
1246 6 2.3998099550891368e+01 4.0865700991868126e+00 3.0469455119466815e+00 313 0.0000000000000000e+00 0.0000000000000000e+00 0.0000000000000000e+00 0.0000000000000000e+00 4.5000000000000000e+00 9.0000000000000013e-01 0 0 0
1728 6 2.2462653991774040e+01 -1.2771014180592366e-01 1.0808239693995230e+00 433 0.0000000000000000e+00 0.0000000000000000e+00 0.0000000000000000e+00 0.0000000000000000e+00 4.5000000000000000e+00 9.0000000000000013e-01 0 1 0
1727 6 2.5061129333888843e+01 -5.8171320888434863e-01 3.5564597334821526e+00 433 0.0000000000000000e+00 0.0000000000000000e+00 0.0000000000000000e+00 0.0000000000000000e+00 4.5000000000000000e+00 9.0000000000000013e-01 0 1 0
223 6 4.4163426609871301e+00 9.3371122428269864e+00 1.9526323034165314e+00 57 0.0000000000000000e+00 0.0000000000000000e+00 0.0000000000000000e+00 0.0000000000000000e+00 4.5000000000000000e+00 9.0000000000000013e-01 1 0 0
222 6 4.7933056451021843e+00 7.5768437178491315e+00 -1.0137152577242172e+00 57 0.0000000000000000e+00 0.0000000000000000e+00 0.0000000000000000e+00 0.0000000000000000e+00 4.5000000000000000e+00 9.0000000000000013e-01 1 0 0
324 6 -7.8720025186783227e-02 8.5860578049179548e+00 1.9442832138039452e+00 82 0.0000000000000000e+00 0.0000000000000000e+00 0.0000000000000000e+00 0.0000000000000000e+00 4.5000000000000000e+00 9.0000000000000013e-01 1 0 1
1418 6 9.0838270624049784e+00 5.4703371555215980e+00 1.0884625138827397e+00 356 0.0000000000000000e+00 0.0000000000000000e+00 0.0000000000000000e+00 0.0000000000000000e+00 4.5000000000000000e+00 9.0000000000000013e-01 0 0 0
1419 6 9.1198543873785685e+00 9.6746778751094951e+00 1.0103210453040954e+00 356 0.0000000000000000e+00 0.0000000000000000e+00 0.0000000000000000e+00 0.0000000000000000e+00 4.5000000000000000e+00 9.0000000000000013e-01 0 0 0
1808 6 8.4571244941062549e+00 7.7930404709314516e+00 5.2500940879140181e+00 453 0.0000000000000000e+00 0.0000000000000000e+00 0.0000000000000000e+00 0.0000000000000000e+00 4.5000000000000000e+00 9.0000000000000013e-01 0 0 0
1991 6 1.3547749619651537e+01 1.0752632651090389e+01 1.3329663469928366e+00 499 0.0000000000000000e+00 0.0000000000000000e+00 0.0000000000000000e+00 0.0000000000000000e+00 4.5000000000000000e+00 9.0000000000000013e-01 0 0 0
1704 6 1.2752155537842022e+01 6.4045608492289361e+00 4.4395116937181900e+00 427 0.0000000000000000e+00 0.0000000000000000e+00 0.0000000000000000e+00 0.0000000000000000e+00 4.5000000000000000e+00 9.0000000000000013e-01 0 0 0
336 6 1.8139006766049835e+01 7.5502959021249954e+00 2.5878760257895146e+00 85 0.0000000000000000e+00 0.0000000000000000e+00 0.0000000000000000e+00 0.0000000000000000e+00 4.5000000000000000e+00 9.0000000000000013e-01 0 0 1
1992 6 1.3496447601757422e+01 7.7314204886320326e+00 -4.4271722161782001e-01 499 0.0000000000000000e+00 0.0000000000000000e+00 0.0000000000000000e+00 0.0000000000000000e+00 4.5000000000000000e+00 9.0000000000000013e-01 0 0 0
203 6 2.2470260070002379e+01 1.1512329232397184e+01 1.1310553868300190e+00 52 0.0000000000000000e+00 0.0000000000000000e+00 0.0000000000000000e+00 0.0000000000000000e+00 4.5000000000000000e+00 9.0000000000000013e-01 0 0 0
335 6 2.0173939280602497e+01 6.9351968235727917e+00 9.7029206073961527e-01 85 0.0000000000000000e+00 0.0000000000000000e+00 0.0000000000000000e+00 0.0000000000000000e+00 4.5000000000000000e+00 9.0000000000000013e-01 0 0 1
1715 6 2.5127100006590297e+01 9.0506868869768748e+00 3.8876551361696041e+00 430 0.0000000000000000e+00 0.0000000000000000e+00 0.0000000000000000e+00 0.0000000000000000e+00 4.5000000000000000e+00 9.0000000000000013e-01 0 0 0
204 6 2.4073250104179280e+01 9.4208227400292905e+00 -1.1768221302093611e+00 52 0.0000000000000000e+00 0.0000000000000000e+00 0.0000000000000000e+00 0.0000000000000000e+00 4.5000000000000000e+00 9.0000000000000013e-01 0 0 0
1151 6 1.3630658374780582e+00 1.3172725700478852e+01 3.5102668475182686e-01 289 0.0000000000000000e+00 0.0000000000000000e+00 0.0000000000000000e+00 0.0000000000000000e+00 4.5000000000000000e+00 9.0000000000000013e-01 1 0 0
1152 6 2.6916473003837180e+00 1.3675161594488314e+01 3.5932813156451715e+00 289 0.0000000000000000e+00 0.0000000000000000e+00 0.0000000000000000e+00 0.0000000000000000e+00 4.5000000000000000e+00 9.0000000000000013e-01 1 0 0
1183 6 2.7703338475337729e+00 1.8334705417411108e+01 5.4648614846273524e-01 297 0.0000000000000000e+00 0.0000000000000000e+00 0.0000000000000000e+00 0.0000000000000000e+00 4.5000000000000000e+00 9.0000000000000013e-01 0 0 0
1184 6 -8.3156467824628932e-01 1.6748775730454629e+01 2.2499685486139156e+00 297 0.0000000000000000e+00 0.0000000000000000e+00 0.0000000000000000e+00 0.0000000000000000e+00 4.5000000000000000e+00 9.0000000000000013e-01 0 0 0
686 6 2.8070141238945254e+00 1.8148489894057143e+01 5.1005461377603281e+00 173 0.0000000000000000e+00 0.0000000000000000e+00 0.0000000000000000e+00 0.0000000000000000e+00 4.5000000000000000e+00 9.0000000000000013e-01 0 0 0
1420 6 8.6394258833922066e+00 1.2867937822232342e+01 2.8207931810765041e-01 356 0.0000000000000000e+00 0.0000000000000000e+00 0.0000000000000000e+00 0.0000000000000000e+00 4.5000000000000000e+00 9.0000000000000013e-01 0 0 0
180 6 7.4491443477021324e+00 1.2464884575686435e+01 4.9519779763056029e+00 46 0.0000000000000000e+00 0.0000000000000000e+00 0.0000000000000000e+00 0.0000000000000000e+00 4.5000000000000000e+00 9.0000000000000013e-01 1 0 1
1990 6 1.2002601484436308e+01 1.3641834601470462e+01 3.7169949259957464e+00 499 0.0000000000000000e+00 0.0000000000000000e+00 0.0000000000000000e+00 0.0000000000000000e+00 4.5000000000000000e+00 9.0000000000000013e-01 0 0 0
688 6 1.0187593953261068e+01 1.7878880968998669e+01 4.3125026561048392e+00 173 0.0000000000000000e+00 0.0000000000000000e+00 0.0000000000000000e+00 0.0000000000000000e+00 4.5000000000000000e+00 9.0000000000000013e-01 0 0 0
1181 1 9.3287306208876224e+00 1.6655268452041383e+01 -1.0140154552726031e+00 297 0.0000000000000000e+00 -2.6753340155992333e-01 -4.4174174639040537e-01 1.6223735527224173e-01 5.0000000000000000e+00 5.8320000000000005e-01 0 0 0
545 1 1.4208613542810525e+01 1.8129335837369517e+01 3.6188749954819270e+00 138 0.0000000000000000e+00 -1.8562269019638514e-01 4.8430655029966796e-01 1.5498381309379380e-01 5.0000000000000000e+00 5.8320000000000005e-01 0 0 1
546 6 1.3263822364049382e+01 1.7519576363360809e+01 4.6191917758266787e-01 138 0.0000000000000000e+00 0.0000000000000000e+00 0.0000000000000000e+00 0.0000000000000000e+00 4.5000000000000000e+00 9.0000000000000013e-01 0 0 1
201 1 1.5745245381155332e+01 1.5451689280121805e+01 3.4573007255768893e+00 52 0.0000000000000000e+00 -3.1410167062840427e-01 4.3751307013512936e-01 5.4321943718711206e-02 5.0000000000000000e+00 5.8320000000000005e-01 0 0 0
202 6 1.8866849772310719e+01 1.2583049118615511e+01 2.5158735223381221e+00 52 0.0000000000000000e+00 0.0000000000000000e+00 0.0000000000000000e+00 0.0000000000000000e+00 4.5000000000000000e+00 9.0000000000000013e-01 0 0 0
376 6 2.1880252049806160e+01 1.7619517994888032e+01 2.7633797198841386e+00 95 0.0000000000000000e+00 0.0000000000000000e+00 0.0000000000000000e+00 0.0000000000000000e+00 4.5000000000000000e+00 9.0000000000000013e-01 0 0 0
375 6 2.2618087503497687e+01 1.6478952966065428e+01 -4.3444734911307292e-01 95 0.0000000000000000e+00 0.0000000000000000e+00 0.0000000000000000e+00 0.0000000000000000e+00 4.5000000000000000e+00 9.0000000000000013e-01 0 0 0
1559 6 3.3459563840534603e+00 2.2601964746345718e+01 3.1827770921426204e+00 391 0.0000000000000000e+00 0.0000000000000000e+00 0.0000000000000000e+00 0.0000000000000000e+00 4.5000000000000000e+00 9.0000000000000013e-01 0 0 0
1560 6 -2.7539226844425513e-01 2.1469160227672575e+01 2.6846293801271592e+00 391 0.0000000000000000e+00 0.0000000000000000e+00 0.0000000000000000e+00 0.0000000000000000e+00 4.5000000000000000e+00 9.0000000000000013e-01 0 0 0
496 6 5.1538392918937506e+00 2.3398911506757489e+01 -1.1181122748430943e+00 125 0.0000000000000000e+00 0.0000000000000000e+00 0.0000000000000000e+00 0.0000000000000000e+00 4.5000000000000000e+00 9.0000000000000013e-01 0 0 1
151 6 9.5865659407480308e+00 2.4445907820363161e+01 -1.4442219589462613e-01 39 0.0000000000000000e+00 0.0000000000000000e+00 0.0000000000000000e+00 0.0000000000000000e+00 4.5000000000000000e+00 9.0000000000000013e-01 0 0 1
1558 6 7.5695226050782445e+00 2.2212518392680714e+01 4.4657206165956049e+00 391 0.0000000000000000e+00 0.0000000000000000e+00 0.0000000000000000e+00 0.0000000000000000e+00 4.5000000000000000e+00 9.0000000000000013e-01 0 0 0
1182 6 6.5595263212853254e+00 1.8858315938811387e+01 5.9699997270199434e-01 297 0.0000000000000000e+00 0.0000000000000000e+00 0.0000000000000000e+00 0.0000000000000000e+00 4.5000000000000000e+00 9.0000000000000013e-01 0 0 0
150 6 1.0511364502908327e+01 2.0902307619386391e+01 -8.1785632730159086e-01 39 0.0000000000000000e+00 0.0000000000000000e+00 0.0000000000000000e+00 0.0000000000000000e+00 4.5000000000000000e+00 9.0000000000000013e-01 0 0 1
1462 6 1.3170793600977378e+01 2.2684074793143832e+01 3.4413928355797951e+00 367 0.0000000000000000e+00 0.0000000000000000e+00 0.0000000000000000e+00 0.0000000000000000e+00 4.5000000000000000e+00 9.0000000000000013e-01 0 0 0
23 6 1.7293130540664922e+01 2.0194724873408003e+01 3.0158356164674114e+00 7 0.0000000000000000e+00 0.0000000000000000e+00 0.0000000000000000e+00 0.0000000000000000e+00 4.5000000000000000e+00 9.0000000000000013e-01 0 0 0
24 6 1.7275511715309520e+01 2.0634169053061179e+01 -2.4397784413453749e-01 7 0.0000000000000000e+00 0.0000000000000000e+00 0.0000000000000000e+00 0.0000000000000000e+00 4.5000000000000000e+00 9.0000000000000013e-01 0 0 0
1672 6 1.7166588289879677e+01 2.5353768189105214e+01 1.5644237699879038e+00 419 0.0000000000000000e+00 0.0000000000000000e+00 0.0000000000000000e+00 0.0000000000000000e+00 4.5000000000000000e+00 9.0000000000000013e-01 0 0 1
1861 1 2.4401598934543500e+01 1.9046154451531631e+01 5.3520395351094292e+00 467 0.0000000000000000e+00 -1.3482914767894127e-01 5.0704299728669788e-01 1.3325617711270246e-01 5.0000000000000000e+00 5.8320000000000005e-01 0 0 0
959 6 2.2127698220705472e+01 2.2157140356026215e+01 9.7021973268755435e-01 241 0.0000000000000000e+00 0.0000000000000000e+00 0.0000000000000000e+00 0.0000000000000000e+00 4.5000000000000000e+00 9.0000000000000013e-01 0 0 0
960 6 2.0960060093831608e+01 2.2902889096423944e+01 3.9317405009083490e+00 241 0.0000000000000000e+00 0.0000000000000000e+00 0.0000000000000000e+00 0.0000000000000000e+00 4.5000000000000000e+00 9.0000000000000013e-01 0 0 0
581 1 2.3893262092114941e+01 2.5173810628172191e+01 5.1421016650535343e+00 147 0.0000000000000000e+00 -1.3440131189531779e-01 5.2355943349812528e-01 -2.9247318782062777e-02 5.0000000000000000e+00 5.8320000000000005e-01 0 0 1
1593 1 2.4831663650708578e+01 2.5470438117087696e+01 1.8069893963451769e+00 400 0.0000000000000000e+00 3.4059052506367726e-01 -4.0165076185526088e-01 1.2534308572050162e-01 5.0000000000000000e+00 5.8320000000000005e-01 0 0 0
1701 1 4.5959895174651280e+00 1.5390466049510980e+00 6.9102804546907937e+00 427 0.0000000000000000e+00 -1.1852096394992585e-01 5.1843788857747541e-01 -1.0103484246392194e-01 5.0000000000000000e+00 5.8320000000000005e-01 0 0 0
2040 6 4.4088560581500804e+00 1.7788811108036606e+00 1.0885277104259108e+01 511 0.0000000000000000e+00 0.0000000000000000e+00 0.0000000000000000e+00 0.0000000000000000e+00 4.5000000000000000e+00 9.0000000000000013e-01 0 0 0
1072 6 6.5643989782280321e-01 4.5485636910749143e+00 6.4704442712924761e+00 269 0.0000000000000000e+00 0.0000000000000000e+00 0.0000000000000000e+00 0.0000000000000000e+00 4.5000000000000000e+00 9.0000000000000013e-01 0 1 0
1071 6 9.8244372225313459e-03 2.7775794346975120e+00 9.4972494459939423e+00 269 0.0000000000000000e+00 0.0000000000000000e+00 0.0000000000000000e+00 0.0000000000000000e+00 4.5000000000000000e+00 9.0000000000000013e-01 0 1 0
289 1 5.3742503808457727e+00 -9.9827250256992628e-01 5.5008253070886184e+00 74 0.0000000000000000e+00 -8.8069892174885339e-02 3.8243442812140566e-01 3.7285796810549388e-01 5.0000000000000000e+00 5.8320000000000005e-01 0 0 0
52 6 1.1993836543781937e+01 -8.5406441283780410e-01 8.1715754828278246e+00 14 0.0000000000000000e+00 0.0000000000000000e+00 0.0000000000000000e+00 0.0000000000000000e+00 4.5000000000000000e+00 9.0000000000000013e-01 0 1 0
1702 6 8.5035408665903738e+00 1.3823218211272956e+00 5.5272897767353966e+00 427 0.0000000000000000e+00 0.0000000000000000e+00 0.0000000000000000e+00 0.0000000000000000e+00 4.5000000000000000e+00 9.0000000000000013e-01 0 0 0
1880 6 8.9701379670239767e+00 4.0750969441129872e+00 9.5870939871665506e+00 471 0.0000000000000000e+00 0.0000000000000000e+00 0.0000000000000000e+00 0.0000000000000000e+00 4.5000000000000000e+00 9.0000000000000013e-01 0 0 0
924 6 1.6268686171046991e+01 2.6538963350322886e+00 6.1894741224789298e+00 232 0.0000000000000000e+00 0.0000000000000000e+00 0.0000000000000000e+00 0.0000000000000000e+00 4.5000000000000000e+00 9.0000000000000013e-01 0 0 0
1379 6 1.6630971301628193e+01 4.1302291489912157e+00 1.0870280187252565e+01 346 0.0000000000000000e+00 0.0000000000000000e+00 0.0000000000000000e+00 0.0000000000000000e+00 4.5000000000000000e+00 9.0000000000000013e-01 0 1 0
51 6 1.3994801584285094e+01 3.5948704656743935e-01 1.1270250053191505e+01 14 0.0000000000000000e+00 0.0000000000000000e+00 0.0000000000000000e+00 0.0000000000000000e+00 4.5000000000000000e+00 9.0000000000000013e-01 0 1 0
1068 6 2.0813490868672027e+01 1.2163222059813230e+00 6.8323188977101488e+00 268 0.0000000000000000e+00 0.0000000000000000e+00 0.0000000000000000e+00 0.0000000000000000e+00 4.5000000000000000e+00 9.0000000000000013e-01 0 1 0
2030 6 2.4167041941684360e+01 2.4684159582549801e+00 1.0746868326146947e+01 509 0.0000000000000000e+00 0.0000000000000000e+00 0.0000000000000000e+00 0.0000000000000000e+00 4.5000000000000000e+00 9.0000000000000013e-01 0 0 0
1300 6 -9.3854855537152027e-01 8.8820011199196856e+00 9.1841893320868149e+00 326 0.0000000000000000e+00 0.0000000000000000e+00 0.0000000000000000e+00 0.0000000000000000e+00 4.5000000000000000e+00 9.0000000000000013e-01 0 0 0
224 6 3.3662197778889134e+00 9.1605933006803060e+00 5.8375858691100557e+00 57 0.0000000000000000e+00 0.0000000000000000e+00 0.0000000000000000e+00 0.0000000000000000e+00 4.5000000000000000e+00 9.0000000000000013e-01 1 0 0
1644 6 4.2607978075210458e+00 6.3674595800333318e+00 9.7024867215040036e+00 412 0.0000000000000000e+00 0.0000000000000000e+00 0.0000000000000000e+00 0.0000000000000000e+00 4.5000000000000000e+00 9.0000000000000013e-01 0 0 0
2024 6 8.7695310703305225e+00 9.2150886768479996e+00 9.9018383089124935e+00 507 0.0000000000000000e+00 0.0000000000000000e+00 0.0000000000000000e+00 0.0000000000000000e+00 4.5000000000000000e+00 9.0000000000000013e-01 0 0 0
2023 6 1.1897008451200168e+01 1.0498558250681207e+01 7.5711415507089708e+00 507 0.0000000000000000e+00 0.0000000000000000e+00 0.0000000000000000e+00 0.0000000000000000e+00 4.5000000000000000e+00 9.0000000000000013e-01 0 0 0
1380 6 1.3743660087784454e+01 5.8031042446334391e+00 9.8331793276647570e+00 346 0.0000000000000000e+00 0.0000000000000000e+00 0.0000000000000000e+00 0.0000000000000000e+00 4.5000000000000000e+00 9.0000000000000013e-01 0 1 0
1248 6 1.8329416321485589e+01 7.9197846148066731e+00 8.1568819407539568e+00 313 0.0000000000000000e+00 0.0000000000000000e+00 0.0000000000000000e+00 0.0000000000000000e+00 4.5000000000000000e+00 9.0000000000000013e-01 0 0 0
2022 6 1.4681285643828017e+01 1.0978614680871194e+01 6.2849633951041444e+00 507 0.0000000000000000e+00 0.0000000000000000e+00 0.0000000000000000e+00 0.0000000000000000e+00 4.5000000000000000e+00 9.0000000000000013e-01 0 0 0
1984 6 2.3586325955496168e+01 7.0229328352761904e+00 1.0081683205992739e+01 497 0.0000000000000000e+00 0.0000000000000000e+00 0.0000000000000000e+00 0.0000000000000000e+00 4.5000000000000000e+00 9.0000000000000013e-01 0 0 0
1247 6 2.1877228622373647e+01 5.4960420249253321e+00 5.7460128769957217e+00 313 0.0000000000000000e+00 0.0000000000000000e+00 0.0000000000000000e+00 0.0000000000000000e+00 4.5000000000000000e+00 9.0000000000000013e-01 0 0 0
1714 6 2.1762924240991083e+01 1.0302990071894074e+01 5.8269695397119898e+00 430 0.0000000000000000e+00 0.0000000000000000e+00 0.0000000000000000e+00 0.0000000000000000e+00 4.5000000000000000e+00 9.0000000000000013e-01 0 0 0
178 6 2.1112469443918220e+00 1.2804684289025577e+01 8.2696878410003407e+00 46 0.0000000000000000e+00 0.0000000000000000e+00 0.0000000000000000e+00 0.0000000000000000e+00 4.5000000000000000e+00 9.0000000000000013e-01 1 0 1
1700 6 2.5150007279823599e+00 1.8181655544672925e+01 1.0173188049190406e+01 426 0.0000000000000000e+00 0.0000000000000000e+00 0.0000000000000000e+00 0.0000000000000000e+00 4.5000000000000000e+00 9.0000000000000013e-01 0 0 0
177 1 -3.7372607740536445e-01 1.6005667109955770e+01 5.9855157495979796e+00 46 0.0000000000000000e+00 1.7203655884059846e-01 4.5803673256389543e-01 -2.3160321941733833e-01 5.0000000000000000e+00 5.8320000000000005e-01 1 0 1
179 6 6.0183714385597993e+00 1.2976560466554988e+01 7.5025237944718768e+00 46 0.0000000000000000e+00 0.0000000000000000e+00 0.0000000000000000e+00 0.0000000000000000e+00 4.5000000000000000e+00 9.0000000000000013e-01 1 0 1
687 6 6.9511292581442348e+00 1.7699606970077777e+01 5.6719470555176148e+00 173 0.0000000000000000e+00 0.0000000000000000e+00 0.0000000000000000e+00 0.0000000000000000e+00 4.5000000000000000e+00 9.0000000000000013e-01 0 0 0
723 6 9.5844128598508185e+00 1.5236170572799804e+01 9.3418810918759370e+00 182 0.0000000000000000e+00 0.0000000000000000e+00 0.0000000000000000e+00 0.0000000000000000e+00 4.5000000000000000e+00 9.0000000000000013e-01 0 0 0
722 6 7.5761653895830268e+00 1.7421265261283718e+01 1.0173797326382649e+01 182 0.0000000000000000e+00 0.0000000000000000e+00 0.0000000000000000e+00 0.0000000000000000e+00 4.5000000000000000e+00 9.0000000000000013e-01 0 0 0
1273 1 1.2001691946961802e+01 1.8113304611136996e+01 8.1667055940879045e+00 320 0.0000000000000000e+00 2.3591453982224220e-01 -4.2142941873728351e-01 -2.4449258827869436e-01 5.0000000000000000e+00 5.8320000000000005e-01 0 0 0
724 6 1.1595651921523709e+01 1.3855193689572413e+01 1.0870653383750687e+01 182 0.0000000000000000e+00 0.0000000000000000e+00 0.0000000000000000e+00 0.0000000000000000e+00 4.5000000000000000e+00 9.0000000000000013e-01 0 0 0
22 6 1.7909271343047916e+01 1.8471525964001117e+01 5.7119660875197766e+00 7 0.0000000000000000e+00 0.0000000000000000e+00 0.0000000000000000e+00 0.0000000000000000e+00 4.5000000000000000e+00 9.0000000000000013e-01 0 0 0
127 6 1.6348462628523482e+01 1.2652406031611884e+01 1.1560130120731703e+01 33 0.0000000000000000e+00 0.0000000000000000e+00 0.0000000000000000e+00 0.0000000000000000e+00 4.5000000000000000e+00 9.0000000000000013e-01 0 0 0
1989 1 1.3367213662506353e+01 1.5811892740732628e+01 7.2783000691331026e+00 499 0.0000000000000000e+00 7.4497089347360920e-02 -4.8511877853204077e-01 -2.2835024369234225e-01 5.0000000000000000e+00 5.8320000000000005e-01 0 0 0
2021 1 1.6359320228778284e+01 1.3872088681425273e+01 6.2307649997932621e+00 507 0.0000000000000000e+00 3.9349714567479444e-01 -2.5762016946231076e-01 -2.6800667740188838e-01 5.0000000000000000e+00 5.8320000000000005e-01 0 0 0
21 1 1.6154063254574250e+01 1.5860669595810748e+01 8.6877758075275491e+00 7 0.0000000000000000e+00 -1.2227979316916160e-01 -2.6608781317351993e-01 -4.5528040421595245e-01 5.0000000000000000e+00 5.8320000000000005e-01 0 0 0
1713 1 1.9448243267547163e+01 1.4504393030405428e+01 6.6249062234772707e+00 430 0.0000000000000000e+00 4.2048859268857286e-01 4.7086798357948392e-02 3.3764765264870628e-01 5.0000000000000000e+00 5.8320000000000005e-01 0 0 0
126 6 1.9859468876925508e+01 1.2183654610199920e+01 1.0435048098806153e+01 33 0.0000000000000000e+00 0.0000000000000000e+00 0.0000000000000000e+00 0.0000000000000000e+00 4.5000000000000000e+00 9.0000000000000013e-01 0 0 0
113 1 2.1683389397767531e+01 1.5239134406587858e+01 8.8257313239242130e+00 30 0.0000000000000000e+00 2.0840952320027095e-01 -1.4429607600655009e-01 4.7830339700711705e-01 5.0000000000000000e+00 5.8320000000000005e-01 0 0 0
1493 1 1.8906143618241511e+01 1.6599118168765187e+01 9.7829553177394786e+00 375 0.0000000000000000e+00 -4.1833461579933229e-01 -2.7792374906226891e-01 -2.0196084207389831e-01 5.0000000000000000e+00 5.8320000000000005e-01 0 0 0
1801 1 2.1250048653944013e+01 1.7387959987840617e+01 1.1391496087565910e+01 452 0.0000000000000000e+00 -2.0796372804896651e-01 -1.8841899722747515e-01 -4.6290255248785150e-01 5.0000000000000000e+00 5.8320000000000005e-01 0 0 0
125 1 2.2842032212123033e+01 1.4447024415845664e+01 1.1477632281854932e+01 33 0.0000000000000000e+00 3.4982955043015596e-01 -1.0782072849222521e-01 3.9877749466744083e-01 5.0000000000000000e+00 5.8320000000000005e-01 0 0 0
1802 6 2.5184302277157354e+01 1.7364957872282691e+01 1.0275611367592372e+01 452 0.0000000000000000e+00 0.0000000000000000e+00 0.0000000000000000e+00 0.0000000000000000e+00 4.5000000000000000e+00 9.0000000000000013e-01 0 0 0
114 6 2.3336008223991918e+01 1.5214173490885123e+01 6.2612314373233335e+00 30 0.0000000000000000e+00 0.0000000000000000e+00 0.0000000000000000e+00 0.0000000000000000e+00 4.5000000000000000e+00 9.0000000000000013e-01 0 0 0
1548 6 2.5393064424127800e+01 1.2231738560227269e+01 1.0168466341312890e+01 388 0.0000000000000000e+00 0.0000000000000000e+00 0.0000000000000000e+00 0.0000000000000000e+00 4.5000000000000000e+00 9.0000000000000013e-01 0 1 0
685 1 -8.1909505276532069e-01 1.8951159588410867e+01 5.8996187086681777e+00 173 0.0000000000000000e+00 1.1810183377499375e-01 3.6954728171433582e-01 3.7752214284268032e-01 5.0000000000000000e+00 5.8320000000000005e-01 0 0 0
1177 1 1.0849138491412140e+00 2.1097402905301760e+01 6.9332088659451614e+00 296 0.0000000000000000e+00 4.6885410281109413e-01 2.3862511016835034e-01 1.2754644830157566e-01 5.0000000000000000e+00 5.8320000000000005e-01 0 0 0
1178 6 1.6318329473810471e+00 2.2945725582014539e+01 9.7171858309356889e+00 296 0.0000000000000000e+00 0.0000000000000000e+00 0.0000000000000000e+00 0.0000000000000000e+00 4.5000000000000000e+00 9.0000000000000013e-01 0 0 0
933 1 3.9161241665888289e+00 2.1151549087219180e+01 7.6466728253483343e+00 235 0.0000000000000000e+00 5.1398656031337464e-01 1.1326034090262464e-01 1.2656788532580790e-01 5.0000000000000000e+00 5.8320000000000005e-01 1 0 0
2002 6 1.2023350763065022e-01 2.5140777384681929e+01 5.9203036795497734e+00 502 0.0000000000000000e+00 0.0000000000000000e+00 0.0000000000000000e+00 0.0000000000000000e+00 4.5000000000000000e+00 9.0000000000000013e-01 0 0 0
1274 6 1.1488183813990823e+01 1.9604714504004054e+01 1.1749058047452941e+01 320 0.0000000000000000e+00 0.0000000000000000e+00 0.0000000000000000e+00 0.0000000000000000e+00 4.5000000000000000e+00 9.0000000000000013e-01 0 0 0
1557 1 9.6851864774175418e+00 2.0393576802310651e+01 8.2021223307695053e+00 391 0.0000000000000000e+00 5.0577437282278914e-01 -1.9274315529215666e-01 -8.7369493381777696e-03 5.0000000000000000e+00 5.8320000000000005e-01 0 0 0
1105 1 7.8120750205359162e+00 2.3936538050317129e+01 1.0749175809604363e+01 278 0.0000000000000000e+00 -4.9244191344889116e-01 1.5242224973119944e-01 1.6523176863325864e-01 5.0000000000000000e+00 5.8320000000000005e-01 0 0 0
721 1 6.8241112297771149e+00 2.1481043280247235e+01 8.6496617487915657e+00 182 0.0000000000000000e+00 5.0838838390460428e-01 -8.8980653282567698e-02 1.6327775247189144e-01 5.0000000000000000e+00 5.8320000000000005e-01 0 0 0
1017 1 1.0515018901569267e+01 2.3370777191737648e+01 9.5498808918543610e+00 256 0.0000000000000000e+00 -3.4639167964242601e-01 3.3143070949303527e-01 2.5139346864913220e-01 5.0000000000000000e+00 5.8320000000000005e-01 0 0 0
873 1 1.2708457054203524e+01 2.2115028887871574e+01 7.8110654945694424e+00 220 0.0000000000000000e+00 -2.2983917087360989e-01 2.4913870650418471e-01 4.2206549652104147e-01 5.0000000000000000e+00 5.8320000000000005e-01 0 0 0
1461 1 1.3865424258613988e+01 2.0085254645620854e+01 5.8911072947485961e+00 367 0.0000000000000000e+00 -1.4159507903507814e-02 3.1652308526137973e-01 4.3891501846319614e-01 5.0000000000000000e+00 5.8320000000000005e-01 0 0 0
1492 6 1.6925111487668079e+01 2.3610479541207365e+01 6.9745434825063661e+00 374 0.0000000000000000e+00 0.0000000000000000e+00 0.0000000000000000e+00 0.0000000000000000e+00 4.5000000000000000e+00 9.0000000000000013e-01 0 0 0
1864 6 1.5745969697984414e+01 1.9528095592319566e+01 1.0021746008298686e+01 467 0.0000000000000000e+00 0.0000000000000000e+00 0.0000000000000000e+00 0.0000000000000000e+00 4.5000000000000000e+00 9.0000000000000013e-01 0 0 0
583 6 2.5464751433248310e+01 2.2466491074677428e+01 1.1003037864821628e+01 147 0.0000000000000000e+00 0.0000000000000000e+00 0.0000000000000000e+00 0.0000000000000000e+00 4.5000000000000000e+00 9.0000000000000013e-01 0 0 1
1862 6 2.1508128881691498e+01 1.9982087322377730e+01 8.2322272270666872e+00 467 0.0000000000000000e+00 0.0000000000000000e+00 0.0000000000000000e+00 0.0000000000000000e+00 4.5000000000000000e+00 9.0000000000000013e-01 0 0 0
1863 6 1.9084308704474914e+01 2.0529272631605895e+01 1.0142894874587491e+01 467 0.0000000000000000e+00 0.0000000000000000e+00 0.0000000000000000e+00 0.0000000000000000e+00 4.5000000000000000e+00 9.0000000000000013e-01 0 0 0
582 6 2.3928857765023345e+01 2.4738994150915929e+01 9.0424009360343742e+00 147 0.0000000000000000e+00 0.0000000000000000e+00 0.0000000000000000e+00 0.0000000000000000e+00 4.5000000000000000e+00 9.0000000000000013e-01 0 0 1
249 1 2.4747625671779019e+01 2.2253858406328291e+01 5.5307638991333166e+00 64 0.0000000000000000e+00 -8.3089171199596315e-03 5.3678318380451739e-01 -6.9467935632055430e-02 5.0000000000000000e+00 5.8320000000000005e-01 0 0 1
1070 6 -1.0021102538713924e+00 6.9768445643159782e-01 1.2822097386014596e+01 269 0.0000000000000000e+00 0.0000000000000000e+00 0.0000000000000000e+00 0.0000000000000000e+00 4.5000000000000000e+00 9.0000000000000013e-01 0 1 0
2039 6 3.7193186538707934e+00 3.5799281151387286e+00 1.4282123837568523e+01 511 0.0000000000000000e+00 0.0000000000000000e+00 0.0000000000000000e+00 0.0000000000000000e+00 4.5000000000000000e+00 9.0000000000000013e-01 0 0 0
2038 6 2.8961636759165144e+00 3.6311707449291086e+00 1.7171128113630566e+01 511 0.0000000000000000e+00 0.0000000000000000e+00 0.0000000000000000e+00 0.0000000000000000e+00 4.5000000000000000e+00 9.0000000000000013e-01 0 0 0