LAMMPS data file via write_data, version 10 Jan 2015, timestep = 100000

2048 atoms
6 atom types
1536 bonds
5 bond types
1024 angles
5 angle types

-6.1050046579017447e-01 5.2610500465787979e+01 xlo xhi
-6.1050046579017447e-01 5.2610500465787979e+01 ylo yhi
-6.1050046579017447e-01 5.2610500465787979e+01 zlo zhi

Masses

1 40
2 90
3 90
4 62
5 62
6 42

Bond Coeffs # harmonic

1 1.506 4.77
2 1.506 4.41
3 1.506 4.14
4 1.506 4.095
5 1.506 4.05

Atoms # hybrid

879 6 4.6629381181458118e+00 6.0134347344957169e+00 2.4123459141122230e+00 221 0.0000000000000000e+00 0.0000000000000000e+00 0.0000000000000000e+00 0.0000000000000000e+00 4.5000000000000000e+00 9.0000000000000013e-01 1 1 1
880 6 2.4282457242864730e+00 4.5031348030827374e+00 1.5249793599314958e+00 221 0.0000000000000000e+00 0.0000000000000000e+00 0.0000000000000000e+00 0.0000000000000000e+00 4.5000000000000000e+00 9.0000000000000013e-01 1 1 1
16 6 -1.0099296765458898e-01 1.2520438197273742e+00 4.2869321498268356e+00 5 0.0000000000000000e+00 0.0000000000000000e+00 0.0000000000000000e+00 0.0000000000000000e+00 4.5000000000000000e+00 9.0000000000000013e-01 0 1 0
1611 6 1.5894883618341820e+00 5.2004118569461175e+00 5.9457218630734587e+00 404 0.0000000000000000e+00 0.0000000000000000e+00 0.0000000000000000e+00 0.0000000000000000e+00 4.5000000000000000e+00 9.0000000000000013e-01 1 1 1
1208 6 2.7812216739030546e+00 -2.9581383217653745e-01 -1.0123586251613914e-02 303 0.0000000000000000e+00 0.0000000000000000e+00 0.0000000000000000e+00 0.0000000000000000e+00 4.5000000000000000e+00 9.0000000000000013e-01 1 1 0
969 6 4.3198786632551265e+00 1.7528553802327802e+00 4.6438169059976229e+00 244 0.0000000000000000e+00 0.0000000000000000e+00 0.0000000000000000e+00 0.0000000000000000e+00 4.5000000000000000e+00 9.0000000000000013e-01 0 1 1
878 6 7.5481225832543721e+00 5.7930807527363770e+00 4.9909485594806737e+00 221 0.0000000000000000e+00 0.0000000000000000e+00 0.0000000000000000e+00 0.0000000000000000e+00 4.5000000000000000e+00 9.0000000000000013e-01 1 1 1
970 6 6.3673902017481243e+00 8.2071260134237911e-01 1.8929659662809533e+00 244 0.0000000000000000e+00 0.0000000000000000e+00 0.0000000000000000e+00 0.0000000000000000e+00 4.5000000000000000e+00 9.0000000000000013e-01 0 1 1
456 6 9.6733016288358105e+00 3.4335878223062517e+00 1.5248222240858968e+00 115 0.0000000000000000e+00 0.0000000000000000e+00 0.0000000000000000e+00 0.0000000000000000e+00 4.5000000000000000e+00 9.0000000000000013e-01 0 0 1
1949 6 1.2549230040232338e+01 1.0962859717247533e+00 5.8428801515131754e+00 489 0.0000000000000000e+00 0.0000000000000000e+00 0.0000000000000000e+00 0.0000000000000000e+00 4.5000000000000000e+00 9.0000000000000013e-01 0 1 1
877 6 1.0573210995220460e+01 5.5027973922150943e+00 5.0519797129217894e+00 221 0.0000000000000000e+00 0.0000000000000000e+00 0.0000000000000000e+00 0.0000000000000000e+00 4.5000000000000000e+00 9.0000000000000013e-01 1 1 1
1662 6 1.4990252799844722e+01 1.1392615253242926e+00 1.8982047457724192e+00 417 0.0000000000000000e+00 0.0000000000000000e+00 0.0000000000000000e+00 0.0000000000000000e+00 4.5000000000000000e+00 9.0000000000000013e-01 0 0 1
1663 6 1.6191136029246017e+01 3.4923881025567196e+00 4.1409019907532896e+00 417 0.0000000000000000e+00 0.0000000000000000e+00 0.0000000000000000e+00 0.0000000000000000e+00 4.5000000000000000e+00 9.0000000000000013e-01 0 0 1
1556 6 1.6140115295241841e+01 5.1130072243370561e+00 -2.4716928769713170e-01 390 0.0000000000000000e+00 0.0000000000000000e+00 0.0000000000000000e+00 0.0000000000000000e+00 4.5000000000000000e+00 9.0000000000000013e-01 0 1 1
2002 6 2.1820276889187340e+01 4.0459801843057246e+00 4.2673203238752437e+00 502 0.0000000000000000e+00 0.0000000000000000e+00 0.0000000000000000e+00 0.0000000000000000e+00 4.5000000000000000e+00 9.0000000000000013e-01 0 0 0
2003 6 2.3443754465824917e+01 5.9939325082089390e+00 2.2107944692620918e+00 502 0.0000000000000000e+00 0.0000000000000000e+00 0.0000000000000000e+00 0.0000000000000000e+00 4.5000000000000000e+00 9.0000000000000013e-01 0 0 0
2001 6 2.0350088442306980e+01 2.1553438979818615e+00 4.7739346808997469e+00 502 0.0000000000000000e+00 0.0000000000000000e+00 0.0000000000000000e+00 0.0000000000000000e+00 4.5000000000000000e+00 9.0000000000000013e-01 0 0 0
1250 6 2.4644504353059716e+01 1.7027116693607454e+00 8.9587721298268974e-01 314 0.0000000000000000e+00 0.0000000000000000e+00 0.0000000000000000e+00 0.0000000000000000e+00 4.5000000000000000e+00 9.0000000000000013e-01 0 0 0
1249 6 2.4142380183406882e+01 -3.2796920285122033e-01 3.4059662111431530e+00 314 0.0000000000000000e+00 0.0000000000000000e+00 0.0000000000000000e+00 0.0000000000000000e+00 4.5000000000000000e+00 9.0000000000000013e-01 0 0 0
803 6 2.0009071539418017e+01 2.1306321886970849e+00 3.7209577207272482e-01 202 0.0000000000000000e+00 0.0000000000000000e+00 0.0000000000000000e+00 0.0000000000000000e+00 4.5000000000000000e+00 9.0000000000000013e-01 0 0 1
940 6 2.8176730899388853e+00 9.6974156381275005e+00 5.0288382711442230e+00 236 0.0000000000000000e+00 0.0000000000000000e+00 0.0000000000000000e+00 0.0000000000000000e+00 4.5000000000000000e+00 9.0000000000000013e-01 1 0 1
2 6 2.4536886979149153e+00 8.9873262544126948e+00 -5.4391789674228530e-03 2 0.0000000000000000e+00 0.0000000000000000e+00 0.0000000000000000e+00 0.0000000000000000e+00 4.5000000000000000e+00 9.0000000000000013e-01 0 0 1
3 6 9.9261050305402443e-02 8.0736699464917088e+00 6.1698157397289655e-01 2 0.0000000000000000e+00 0.0000000000000000e+00 0.0000000000000000e+00 0.0000000000000000e+00 4.5000000000000000e+00 9.0000000000000013e-01 0 0 1
1 6 4.7309295210778304e+00 1.0627329850502324e+01 8.7346153317855491e-01 2 0.0000000000000000e+00 0.0000000000000000e+00 0.0000000000000000e+00 0.0000000000000000e+00 4.5000000000000000e+00 9.0000000000000013e-01 0 0 1
939 6 -2.7755530085194036e-01 9.9749632233833729e+00 4.8792929093116584e+00 236 0.0000000000000000e+00 0.0000000000000000e+00 0.0000000000000000e+00 0.0000000000000000e+00 4.5000000000000000e+00 9.0000000000000013e-01 1 0 1
360 6 7.6631171986531452e+00 1.0164004060277241e+01 4.3907538510099640e+00 91 0.0000000000000000e+00 0.0000000000000000e+00 0.0000000000000000e+00 0.0000000000000000e+00 4.5000000000000000e+00 9.0000000000000013e-01 0 0 0
179 6 1.1463840641754491e+01 1.2351514798127255e+01 3.3146708036347716e+00 46 0.0000000000000000e+00 0.0000000000000000e+00 0.0000000000000000e+00 0.0000000000000000e+00 4.5000000000000000e+00 9.0000000000000013e-01 1 0 1
93 6 8.5563490236784876e+00 8.3663669169568600e+00 3.4299837905500929e-01 25 0.0000000000000000e+00 0.0000000000000000e+00 0.0000000000000000e+00 0.0000000000000000e+00 4.5000000000000000e+00 9.0000000000000013e-01 0 0 0
652 6 1.8713710016516011e+01 1.0818007610240704e+01 -2.8718667745192689e-01 164 0.0000000000000000e+00 0.0000000000000000e+00 0.0000000000000000e+00 0.0000000000000000e+00 4.5000000000000000e+00 9.0000000000000013e-01 0 0 0
723 6 1.4392791624331869e+01 8.0371891065264176e+00 2.8054911484936036e+00 182 0.0000000000000000e+00 0.0000000000000000e+00 0.0000000000000000e+00 0.0000000000000000e+00 4.5000000000000000e+00 9.0000000000000013e-01 0 0 0
722 6 1.6827082271907411e+01 9.4491761569096990e+00 5.9310427759116271e+00 182 0.0000000000000000e+00 0.0000000000000000e+00 0.0000000000000000e+00 0.0000000000000000e+00 4.5000000000000000e+00 9.0000000000000013e-01 0 0 0
724 6 1.3286334607278860e+01 8.9436844796445882e+00 1.4989725251399599e-01 182 0.0000000000000000e+00 0.0000000000000000e+00 0.0000000000000000e+00 0.0000000000000000e+00 4.5000000000000000e+00 9.0000000000000013e-01 0 0 0
1421 6 1.9416754408807773e+01 7.6056979484623000e+00 2.9327927273544008e+00 357 0.0000000000000000e+00 0.0000000000000000e+00 0.0000000000000000e+00 0.0000000000000000e+00 4.5000000000000000e+00 9.0000000000000013e-01 0 0 0
1422 6 2.1399913368304226e+01 9.9759773184044516e+00 3.6917609525355966e+00 357 0.0000000000000000e+00 0.0000000000000000e+00 0.0000000000000000e+00 0.0000000000000000e+00 4.5000000000000000e+00 9.0000000000000013e-01 0 0 0
449 6 2.5961163109062088e+01 9.8924376003548034e+00 3.7979680838195451e+00 114 0.0000000000000000e+00 0.0000000000000000e+00 0.0000000000000000e+00 0.0000000000000000e+00 4.5000000000000000e+00 9.0000000000000013e-01 0 0 0
1423 6 2.3749657252846831e+01 1.0713044405041501e+01 2.5346700463978877e-01 357 0.0000000000000000e+00 0.0000000000000000e+00 0.0000000000000000e+00 0.0000000000000000e+00 4.5000000000000000e+00 9.0000000000000013e-01 0 0 0
1915 6 5.1694147555954064e+00 1.8252141935722136e+01 -4.7633492647398035e-01 480 0.0000000000000000e+00 0.0000000000000000e+00 0.0000000000000000e+00 0.0000000000000000e+00 4.5000000000000000e+00 9.0000000000000013e-01 0 0 1
89 6 4.7907711974659524e+00 1.3730843721270048e+01 3.9851910170565814e+00 24 0.0000000000000000e+00 0.0000000000000000e+00 0.0000000000000000e+00 0.0000000000000000e+00 4.5000000000000000e+00 9.0000000000000013e-01 1 0 1
223 6 5.4643949460735373e+00 1.8266348095156641e+01 3.8381938395391861e+00 57 0.0000000000000000e+00 0.0000000000000000e+00 0.0000000000000000e+00 0.0000000000000000e+00 4.5000000000000000e+00 9.0000000000000013e-01 1 0 0
224 6 1.5165513516650591e+00 1.7395919324275457e+01 3.6518086636346201e+00 57 0.0000000000000000e+00 0.0000000000000000e+00 0.0000000000000000e+00 0.0000000000000000e+00 4.5000000000000000e+00 9.0000000000000013e-01 1 0 0
1860 6 9.1687791251308748e-01 1.3028632198076123e+01 1.7101812110968790e+00 466 0.0000000000000000e+00 0.0000000000000000e+00 0.0000000000000000e+00 0.0000000000000000e+00 4.5000000000000000e+00 9.0000000000000013e-01 1 0 1
221 6 1.2397469313410728e+01 1.7004889696209617e+01 3.8514857585330313e+00 57 0.0000000000000000e+00 0.0000000000000000e+00 0.0000000000000000e+00 0.0000000000000000e+00 4.5000000000000000e+00 9.0000000000000013e-01 1 0 0
222 6 9.3889425290731054e+00 1.8872629032696036e+01 3.4713984219877991e+00 57 0.0000000000000000e+00 0.0000000000000000e+00 0.0000000000000000e+00 0.0000000000000000e+00 4.5000000000000000e+00 9.0000000000000013e-01 1 0 0
90 6 7.5259244644363505e+00 1.4225072743702540e+01 8.2173086892217939e-01 24 0.0000000000000000e+00 0.0000000000000000e+00 0.0000000000000000e+00 0.0000000000000000e+00 4.5000000000000000e+00 9.0000000000000013e-01 1 0 1
178 6 9.6601995311248583e+00 1.3900993271265619e+01 5.6906741098244309e+00 46 0.0000000000000000e+00 0.0000000000000000e+00 0.0000000000000000e+00 0.0000000000000000e+00 4.5000000000000000e+00 9.0000000000000013e-01 1 0 1
22 6 1.2462107991768956e+01 1.9230277007514278e+01 1.6825415840135616e-01 7 0.0000000000000000e+00 0.0000000000000000e+00 0.0000000000000000e+00 0.0000000000000000e+00 4.5000000000000000e+00 9.0000000000000013e-01 0 0 0
180 6 1.5434493510420815e+01 1.2790039044106011e+01 3.1343946964353271e+00 46 0.0000000000000000e+00 0.0000000000000000e+00 0.0000000000000000e+00 0.0000000000000000e+00 4.5000000000000000e+00 9.0000000000000013e-01 1 0 1
780 6 1.6688524500114031e+01 1.8100740576180577e+01 2.2012983908534673e+00 196 0.0000000000000000e+00 0.0000000000000000e+00 0.0000000000000000e+00 0.0000000000000000e+00 4.5000000000000000e+00 9.0000000000000013e-01 0 0 1
1289 6 1.3174127233733675e+01 1.3896641602601655e+01 -4.3802646441428050e-01 324 0.0000000000000000e+00 0.0000000000000000e+00 0.0000000000000000e+00 0.0000000000000000e+00 4.5000000000000000e+00 9.0000000000000013e-01 0 0 0
1539 6 2.2976923184499366e+01 1.5316450323837248e+01 -2.1209773469894616e-01 386 0.0000000000000000e+00 0.0000000000000000e+00 0.0000000000000000e+00 0.0000000000000000e+00 4.5000000000000000e+00 9.0000000000000013e-01 0 0 0
1540 6 1.9955560000142860e+01 1.4709255230457705e+01 2.2757784633601901e+00 386 0.0000000000000000e+00 0.0000000000000000e+00 0.0000000000000000e+00 0.0000000000000000e+00 4.5000000000000000e+00 9.0000000000000013e-01 0 0 0
1187 6 2.4489278061601119e+01 1.6017074547289241e+01 3.7907563980330634e+00 298 0.0000000000000000e+00 0.0000000000000000e+00 0.0000000000000000e+00 0.0000000000000000e+00 4.5000000000000000e+00 9.0000000000000013e-01 0 0 0
781 6 2.5847540367313552e+01 1.9342734162407982e+01 5.7387852348218971e-01 197 0.0000000000000000e+00 0.0000000000000000e+00 0.0000000000000000e+00 0.0000000000000000e+00 4.5000000000000000e+00 9.0000000000000013e-01 0 0 0
1742 6 3.6884245224352847e+00 2.5443248355946835e+01 1.8615459529951464e+00 437 0.0000000000000000e+00 0.0000000000000000e+00 0.0000000000000000e+00 0.0000000000000000e+00 4.5000000000000000e+00 9.0000000000000013e-01 0 0 0
496 6 1.4146158309652552e+00 2.1327855939937642e+01 1.4497354191552709e+00 125 0.0000000000000000e+00 0.0000000000000000e+00 0.0000000000000000e+00 0.0000000000000000e+00 4.5000000000000000e+00 9.0000000000000013e-01 0 0 1
412 6 1.6555854385617330e+00 2.3532867030838226e+01 5.4390783366078468e+00 104 0.0000000000000000e+00 0.0000000000000000e+00 0.0000000000000000e+00 0.0000000000000000e+00 4.5000000000000000e+00 9.0000000000000013e-01 1 0 0
1743 6 5.8182160637323044e+00 2.2656070096728282e+01 4.1547578503760212e+00 437 0.0000000000000000e+00 0.0000000000000000e+00 0.0000000000000000e+00 0.0000000000000000e+00 4.5000000000000000e+00 9.0000000000000013e-01 0 0 0
584 6 1.0145529819297602e+01 2.3686843124189743e+01 1.2356947920007304e+00 147 0.0000000000000000e+00 0.0000000000000000e+00 0.0000000000000000e+00 0.0000000000000000e+00 4.5000000000000000e+00 9.0000000000000013e-01 0 0 1
1626 6 9.5771186649281859e+00 2.3806167231413671e+01 5.9768367824267354e+00 408 0.0000000000000000e+00 0.0000000000000000e+00 0.0000000000000000e+00 0.0000000000000000e+00 4.5000000000000000e+00 9.0000000000000013e-01 0 0 0
1916 6 6.0900972743330799e+00 2.1857917296172943e+01 -2.1964999374939231e-02 480 0.0000000000000000e+00 0.0000000000000000e+00 0.0000000000000000e+00 0.0000000000000000e+00 4.5000000000000000e+00 9.0000000000000013e-01 0 0 1
23 6 1.3161290795077107e+01 2.1476293473971726e+01 3.3172113183481673e+00 7 0.0000000000000000e+00 0.0000000000000000e+00 0.0000000000000000e+00 0.0000000000000000e+00 4.5000000000000000e+00 9.0000000000000013e-01 0 0 0
2014 6 1.9246654208532018e+01 2.1135549360289765e+01 4.0968526120518609e+00 505 0.0000000000000000e+00 0.0000000000000000e+00 0.0000000000000000e+00 0.0000000000000000e+00 4.5000000000000000e+00 9.0000000000000013e-01 0 0 1
24 6 1.4686092098600286e+01 2.2362411236678291e+01 5.5274279757295295e+00 7 0.0000000000000000e+00 0.0000000000000000e+00 0.0000000000000000e+00 0.0000000000000000e+00 4.5000000000000000e+00 9.0000000000000013e-01 0 0 0
2015 6 1.7838885739101059e+01 2.4439265042659432e+01 3.0224711454611723e+00 505 0.0000000000000000e+00 0.0000000000000000e+00 0.0000000000000000e+00 0.0000000000000000e+00 4.5000000000000000e+00 9.0000000000000013e-01 0 0 1
2016 6 1.6808193510325555e+01 2.5858192766021229e+01 2.7093913820426963e-01 505 0.0000000000000000e+00 0.0000000000000000e+00 0.0000000000000000e+00 0.0000000000000000e+00 4.5000000000000000e+00 9.0000000000000013e-01 0 0 1
2013 6 2.1205005622072012e+01 1.9385245863568567e+01 2.2405298887859391e+00 505 0.0000000000000000e+00 0.0000000000000000e+00 0.0000000000000000e+00 0.0000000000000000e+00 4.5000000000000000e+00 9.0000000000000013e-01 0 0 1
1432 6 2.2808098847412726e+01 2.3660759406447010e+01 1.6134023227309404e+00 359 0.0000000000000000e+00 0.0000000000000000e+00 0.0000000000000000e+00 0.0000000000000000e+00 4.5000000000000000e+00 9.0000000000000013e-01 0 0 1
557 6 2.4530119255840191e+01 2.1041741414397716e+01 4.7327466512845797e+00 141 0.0000000000000000e+00 0.0000000000000000e+00 0.0000000000000000e+00 0.0000000000000000e+00 4.5000000000000000e+00 9.0000000000000013e-01 0 0 0
713 6 4.4232647650279260e+00 8.8073561079065565e-01 1.0129919374880467e+01 180 0.0000000000000000e+00 0.0000000000000000e+00 0.0000000000000000e+00 0.0000000000000000e+00 4.5000000000000000e+00 9.0000000000000013e-01 0 1 0
1612 6 4.0894036238306866e+00 5.5554141176966372e+00 7.5575054441875391e+00 404 0.0000000000000000e+00 0.0000000000000000e+00 0.0000000000000000e+00 0.0000000000000000e+00 4.5000000000000000e+00 9.0000000000000013e-01 1 1 1
1224 6 1.5391425714536626e+00 5.3893404573959405e+00 1.1455847472327239e+01 307 0.0000000000000000e+00 0.0000000000000000e+00 0.0000000000000000e+00 0.0000000000000000e+00 4.5000000000000000e+00 9.0000000000000013e-01 0 1 0
1644 6 9.6335040156187155e+00 2.6763117850477700e+00 9.4397585385551519e+00 412 0.0000000000000000e+00 0.0000000000000000e+00 0.0000000000000000e+00 0.0000000000000000e+00 4.5000000000000000e+00 9.0000000000000013e-01 0 0 0
1664 6 1.8456051744439982e+01 5.4532584252359291e+00 7.0796019115668338e+00 417 0.0000000000000000e+00 0.0000000000000000e+00 0.0000000000000000e+00 0.0000000000000000e+00 4.5000000000000000e+00 9.0000000000000013e-01 0 0 1
1993 6 1.4301184647784162e+01 1.8848577930170189e+00 1.0119007473233182e+01 500 0.0000000000000000e+00 0.0000000000000000e+00 0.0000000000000000e+00 0.0000000000000000e+00 4.5000000000000000e+00 9.0000000000000013e-01 0 0 0
1994 6 1.7413539950753329e+01 1.3284364688043457e+00 9.0737793484952061e+00 500 0.0000000000000000e+00 0.0000000000000000e+00 0.0000000000000000e+00 0.0000000000000000e+00 4.5000000000000000e+00 9.0000000000000013e-01 0 0 0
1261 6 1.4074064596051862e+01 5.9261941482550462e+00 8.0783414006291956e+00 317 0.0000000000000000e+00 0.0000000000000000e+00 0.0000000000000000e+00 0.0000000000000000e+00 4.5000000000000000e+00 9.0000000000000013e-01 0 0 0
1262 6 1.6394283804466056e+01 5.9320845534163062e+00 1.1128105100557820e+01 317 0.0000000000000000e+00 0.0000000000000000e+00 0.0000000000000000e+00 0.0000000000000000e+00 4.5000000000000000e+00 9.0000000000000013e-01 0 0 0
998 6 2.2344768171124397e+01 2.8184220440474332e+00 9.3060021365907328e+00 251 0.0000000000000000e+00 0.0000000000000000e+00 0.0000000000000000e+00 0.0000000000000000e+00 4.5000000000000000e+00 9.0000000000000013e-01 0 0 0
999 6 2.0623866350531014e+01 4.2720229225163324e+00 1.1042628357586223e+01 251 0.0000000000000000e+00 0.0000000000000000e+00 0.0000000000000000e+00 0.0000000000000000e+00 4.5000000000000000e+00 9.0000000000000013e-01 0 0 0
997 6 2.5051960752095301e+01 1.8848738871135513e+00 7.5153792479621337e+00 251 0.0000000000000000e+00 0.0000000000000000e+00 0.0000000000000000e+00 0.0000000000000000e+00 4.5000000000000000e+00 9.0000000000000013e-01 0 0 0
1311 6 -2.4048010877339016e-01 9.5917814134417689e+00 1.2230021228857789e+01 329 0.0000000000000000e+00 0.0000000000000000e+00 0.0000000000000000e+00 0.0000000000000000e+00 4.5000000000000000e+00 9.0000000000000013e-01 0 0 0
358 6 5.2449199019049271e+00 1.2167814626813227e+01 8.4645381907300496e+00 91 0.0000000000000000e+00 0.0000000000000000e+00 0.0000000000000000e+00 0.0000000000000000e+00 4.5000000000000000e+00 9.0000000000000013e-01 0 0 0
1642 6 5.4414596664390009e+00 8.1909807827877295e+00 1.0887291019763069e+01 412 0.0000000000000000e+00 0.0000000000000000e+00 0.0000000000000000e+00 0.0000000000000000e+00 4.5000000000000000e+00 9.0000000000000013e-01 0 0 0
1312 6 1.4728542637267985e+00 9.1401461393488201e+00 9.0912798631734812e+00 329 0.0000000000000000e+00 0.0000000000000000e+00 0.0000000000000000e+00 0.0000000000000000e+00 4.5000000000000000e+00 9.0000000000000013e-01 0 0 0
1643 6 8.3509441779493319e+00 6.2377583824885185e+00 9.4592703570996068e+00 412 0.0000000000000000e+00 0.0000000000000000e+00 0.0000000000000000e+00 0.0000000000000000e+00 4.5000000000000000e+00 9.0000000000000013e-01 0 0 0
359 6 7.0982963816732569e+00 1.0588713359713816e+01 7.1341631212505741e+00 91 0.0000000000000000e+00 0.0000000000000000e+00 0.0000000000000000e+00 0.0000000000000000e+00 4.5000000000000000e+00 9.0000000000000013e-01 0 0 0
268 6 1.1591613618512135e+01 9.5293381397682921e+00 7.1131090585061516e+00 68 0.0000000000000000e+00 0.0000000000000000e+00 0.0000000000000000e+00 0.0000000000000000e+00 4.5000000000000000e+00 9.0000000000000013e-01 0 0 0
420 6 9.3763151376144780e+00 1.1541664855062542e+01 1.1096000973605253e+01 106 0.0000000000000000e+00 0.0000000000000000e+00 0.0000000000000000e+00 0.0000000000000000e+00 4.5000000000000000e+00 9.0000000000000013e-01 0 1 0
284 6 1.3207740591695128e+01 9.1379045169859037e+00 1.2447190452464046e+01 72 0.0000000000000000e+00 0.0000000000000000e+00 0.0000000000000000e+00 0.0000000000000000e+00 4.5000000000000000e+00 9.0000000000000013e-01 0 0 0
205 6 1.7782936645941231e+01 1.0183126126206485e+01 1.0381999587958513e+01 53 0.0000000000000000e+00 0.0000000000000000e+00 0.0000000000000000e+00 0.0000000000000000e+00 4.5000000000000000e+00 9.0000000000000013e-01 0 0 0
267 6 1.3122904493735668e+01 1.2225666966486230e+01 8.3264250322630122e+00 68 0.0000000000000000e+00 0.0000000000000000e+00 0.0000000000000000e+00 0.0000000000000000e+00 4.5000000000000000e+00 9.0000000000000013e-01 0 0 0
1987 6 2.4637100141638605e+01 6.8758508878303992e+00 1.1319791069701834e+01 498 0.0000000000000000e+00 0.0000000000000000e+00 0.0000000000000000e+00 0.0000000000000000e+00 4.5000000000000000e+00 9.0000000000000013e-01 0 0 0
206 6 2.0670710844636947e+01 9.0853089312803803e+00 8.4338319554149059e+00 53 0.0000000000000000e+00 0.0000000000000000e+00 0.0000000000000000e+00 0.0000000000000000e+00 4.5000000000000000e+00 9.0000000000000013e-01 0 0 0
207 6 2.3020225242868580e+01 7.0571165818903472e+00 7.0107519226018118e+00 53 0.0000000000000000e+00 0.0000000000000000e+00 0.0000000000000000e+00 0.0000000000000000e+00 4.5000000000000000e+00 9.0000000000000013e-01 0 0 0
451 6 2.3150142746797904e+01 1.2274745121517974e+01 1.0626345852002210e+01 114 0.0000000000000000e+00 0.0000000000000000e+00 0.0000000000000000e+00 0.0000000000000000e+00 4.5000000000000000e+00 9.0000000000000013e-01 0 0 0
450 6 2.3990565305290339e+01 1.2076478570325131e+01 6.7574189361165731e+00 114 0.0000000000000000e+00 0.0000000000000000e+00 0.0000000000000000e+00 0.0000000000000000e+00 4.5000000000000000e+00 9.0000000000000013e-01 0 0 0
357 6 1.5679684010694448e+00 1.3683802059488736e+01 7.0459027731563166e+00 91 0.0000000000000000e+00 0.0000000000000000e+00 0.0000000000000000e+00 0.0000000000000000e+00 4.5000000000000000e+00 9.0000000000000013e-01 0 0 0
257 6 1.4207512935416098e+00 1.3829822895536147e+01 1.1763531220223548e+01 66 0.0000000000000000e+00 0.0000000000000000e+00 0.0000000000000000e+00 0.0000000000000000e+00 4.5000000000000000e+00 9.0000000000000013e-01 1 0 0
1805 6 2.9108917404298036e+00 1.7457600355598029e+01 8.6469212853205359e+00 453 0.0000000000000000e+00 0.0000000000000000e+00 0.0000000000000000e+00 0.0000000000000000e+00 4.5000000000000000e+00 9.0000000000000013e-01 0 0 0
1806 6 5.4896940966709584e+00 1.6366796466660862e+01 1.1534040008453918e+01 453 0.0000000000000000e+00 0.0000000000000000e+00 0.0000000000000000e+00 0.0000000000000000e+00 4.5000000000000000e+00 9.0000000000000013e-01 0 0 0
177 6 7.7286541509592190e+00 1.5988096368044534e+01 7.2535379219013576e+00 46 0.0000000000000000e+00 0.0000000000000000e+00 0.0000000000000000e+00 0.0000000000000000e+00 4.5000000000000000e+00 9.0000000000000013e-01 1 0 1
1629 6 1.0975683370376267e+01 1.6513041149697976e+01 1.0492932898842088e+01 409 0.0000000000000000e+00 0.0000000000000000e+00 0.0000000000000000e+00 0.0000000000000000e+00 4.5000000000000000e+00 9.0000000000000013e-01 0 0 0
721 6 1.8905566953687355e+01 1.2803477375387814e+01 6.4226131037302130e+00 182 0.0000000000000000e+00 0.0000000000000000e+00 0.0000000000000000e+00 0.0000000000000000e+00 4.5000000000000000e+00 9.0000000000000013e-01 0 0 0
265 6 1.6900198166505227e+01 1.7495648148676040e+01 6.6346691017056001e+00 68 0.0000000000000000e+00 0.0000000000000000e+00 0.0000000000000000e+00 0.0000000000000000e+00 4.5000000000000000e+00 9.0000000000000013e-01 0 0 0
266 6 1.5347506851733122e+01 1.4660298126376544e+01 8.0969841832778275e+00 68 0.0000000000000000e+00 0.0000000000000000e+00 0.0000000000000000e+00 0.0000000000000000e+00 4.5000000000000000e+00 9.0000000000000013e-01 0 0 0
685 6 1.8934878294829446e+01 1.4739119776830684e+01 1.0352220205160293e+01 173 0.0000000000000000e+00 0.0000000000000000e+00 0.0000000000000000e+00 0.0000000000000000e+00 4.5000000000000000e+00 9.0000000000000013e-01 0 0 0
1630 6 1.3470936075833974e+01 1.5601266861962408e+01 1.2242312105583750e+01 409 0.0000000000000000e+00 0.0000000000000000e+00 0.0000000000000000e+00 0.0000000000000000e+00 4.5000000000000000e+00 9.0000000000000013e-01 0 0 0
686 6 1.8555882250442480e+01 1.8240188260142418e+01 1.1316016288194760e+01 173 0.0000000000000000e+00 0.0000000000000000e+00 0.0000000000000000e+00 0.0000000000000000e+00 4.5000000000000000e+00 9.0000000000000013e-01 0 0 0
1186 6 2.2555909077991362e+01 1.6765620447841403e+01 6.2936842708601191e+00 298 0.0000000000000000e+00 0.0000000000000000e+00 0.0000000000000000e+00 0.0000000000000000e+00 4.5000000000000000e+00 9.0000000000000013e-01 0 0 0
1185 6 2.2880586448680511e+01 1.7118984992905112e+01 1.0446173186974661e+01 298 0.0000000000000000e+00 0.0000000000000000e+00 0.0000000000000000e+00 0.0000000000000000e+00 4.5000000000000000e+00 9.0000000000000013e-01 0 0 0
410 6 4.0343264875070810e+00 2.0830421380998853e+01 1.1534190260448979e+01 104 0.0000000000000000e+00 0.0000000000000000e+00 0.0000000000000000e+00 0.0000000000000000e+00 4.5000000000000000e+00 9.0000000000000013e-01 1 0 0
411 6 2.2072402723234972e+00 2.2363801069159845e+01 8.7687192424714020e+00 104 0.0000000000000000e+00 0.0000000000000000e+00 0.0000000000000000e+00 0.0000000000000000e+00 4.5000000000000000e+00 9.0000000000000013e-01 1 0 0
1196 6 5.6373679663611851e+00 2.5752921529349880e+01 7.3924525562138932e+00 300 0.0000000000000000e+00 0.0000000000000000e+00 0.0000000000000000e+00 0.0000000000000000e+00 4.5000000000000000e+00 9.0000000000000013e-01 0 0 0
1744 6 6.8789068189845768e+00 2.0549093203577662e+01 7.8825465403268016e+00 437 0.0000000000000000e+00 0.0000000000000000e+00 0.0000000000000000e+00 0.0000000000000000e+00 4.5000000000000000e+00 9.0000000000000013e-01 0 0 0
1627 6 1.1442473516934159e+01 2.0351556258256071e+01 7.6943683879405462e+00 408 0.0000000000000000e+00 0.0000000000000000e+00 0.0000000000000000e+00 0.0000000000000000e+00 4.5000000000000000e+00 9.0000000000000013e-01 0 0 0
1941 6 8.9733060063924608e+00 2.1232186377665446e+01 1.1686467966919036e+01 487 0.0000000000000000e+00 0.0000000000000000e+00 0.0000000000000000e+00 0.0000000000000000e+00 4.5000000000000000e+00 9.0000000000000013e-01 0 0 0
1942 6 7.6584001960033170e+00 2.4351521773923618e+01 1.0780423231189966e+01 487 0.0000000000000000e+00 0.0000000000000000e+00 0.0000000000000000e+00 0.0000000000000000e+00 4.5000000000000000e+00 9.0000000000000013e-01 0 0 0
678 6 1.8938250868668771e+01 2.5352812888524749e+01 1.2063739097837770e+01 171 0.0000000000000000e+00 0.0000000000000000e+00 0.0000000000000000e+00 0.0000000000000000e+00 4.5000000000000000e+00 9.0000000000000013e-01 0 0 0
1628 6 1.4311462909550178e+01 1.9620485173823806e+01 9.4702536291514168e+00 408 0.0000000000000000e+00 0.0000000000000000e+00 0.0000000000000000e+00 0.0000000000000000e+00 4.5000000000000000e+00 9.0000000000000013e-01 0 0 0
315 6 1.5341137806056086e+01 2.3780940054423716e+01 9.7533310160784659e+00 80 0.0000000000000000e+00 0.0000000000000000e+00 0.0000000000000000e+00 0.0000000000000000e+00 4.5000000000000000e+00 9.0000000000000013e-01 0 0 0
314 6 1.8439653962949599e+01 2.2124100274885972e+01 8.5365031920237548e+00 80 0.0000000000000000e+00 0.0000000000000000e+00 0.0000000000000000e+00 0.0000000000000000e+00 4.5000000000000000e+00 9.0000000000000013e-01 0 0 0
316 6 1.2900788455111124e+01 2.3834137635468796e+01 1.1631947286937429e+01 80 0.0000000000000000e+00 0.0000000000000000e+00 0.0000000000000000e+00 0.0000000000000000e+00 4.5000000000000000e+00 9.0000000000000013e-01 0 0 0
313 6 2.1235984888537189e+01 2.1081181919857755e+01 8.3592041280230198e+00 80 0.0000000000000000e+00 0.0000000000000000e+00 0.0000000000000000e+00 0.0000000000000000e+00 4.5000000000000000e+00 9.0000000000000013e-01 0 0 0
680 6 2.4204435198668136e+01 2.0704299350805528e+01 1.2663493197866346e+01 171 0.0000000000000000e+00 0.0000000000000000e+00 0.0000000000000000e+00 0.0000000000000000e+00 4.5000000000000000e+00 9.0000000000000013e-01 0 0 0
623 6 2.1981974811055803e+01 2.5183925923284178e+01 6.1353057695943551e+00 157 0.0000000000000000e+00 0.0000000000000000e+00 0.0000000000000000e+00 0.0000000000000000e+00 4.5000000000000000e+00 9.0000000000000013e-01 0 0 1
121 6 2.3547424369033074e+01 2.5547950815525443e+01 1.0564453414995256e+01 32 0.0000000000000000e+00 0.0000000000000000e+00 0.0000000000000000e+00 0.0000000000000000e+00 4.5000000000000000e+00 9.0000000000000013e-01 0 0 0
2037 6 -5.1786336685743883e-01 4.1213035899986732e+00 1.6624505392708208e+01 511 0.0000000000000000e+00 0.0000000000000000e+00 0.0000000000000000e+00 0.0000000000000000e+00 4.5000000000000000e+00 9.0000000000000013e-01 0 0 0
1139 6 4.7260286957100242e+00 3.7989782803686776e+00 1.7503083961315177e+01 286 0.0000000000000000e+00 0.0000000000000000e+00 0.0000000000000000e+00 0.0000000000000000e+00 4.5000000000000000e+00 9.0000000000000013e-01 0 1 0
472 6 2.1359974766552479e+00 1.4203137548409974e+00 1.4062884356000390e+01 119 0.0000000000000000e+00 0.0000000000000000e+00 0.0000000000000000e+00 0.0000000000000000e+00 4.5000000000000000e+00 9.0000000000000013e-01 1 1 0
471 6 3.1099078691852167e-01 1.1804291732960428e+00 1.3334949344641787e+01 119 0.0000000000000000e+00 0.0000000000000000e+00 0.0000000000000000e+00 0.0000000000000000e+00 4.5000000000000000e+00 9.0000000000000013e-01 1 1 0
1138 6 5.7766983746335709e+00 -4.4966724687105253e-01 1.6808116821128792e+01 286 0.0000000000000000e+00 0.0000000000000000e+00 0.0000000000000000e+00 0.0000000000000000e+00 4.5000000000000000e+00 9.0000000000000013e-01 0 1 0
714 6 6.2515926892950828e+00 3.7526443354343861e+00 1.2799840204508955e+01 180 0.0000000000000000e+00 0.0000000000000000e+00 0.0000000000000000e+00 0.0000000000000000e+00 4.5000000000000000e+00 9.0000000000000013e-01 0 1 0