LAMMPS data file via write_data, version 10 Jan 2015, timestep = 100000

1024 atoms
6 atom types
512 bonds
5 bond types
0 angles
5 angle types

2.7302310520920514e+00 4.9269768947908318e+01 xlo xhi
2.7302310520920514e+00 4.9269768947908318e+01 ylo yhi
2.7302310520920514e+00 4.9269768947908318e+01 zlo zhi

Masses

1 40
2 90
3 90
4 62
5 62
6 42

Bond Coeffs # harmonic

1 1.506 4.77
2 1.506 4.41
3 1.506 4.14
4 1.506 4.095
5 1.506 4.05

Atoms # hybrid

314 6 6.4294766450248542e+00 4.4198127055662253e+00 3.3537723074799817e+00 158 0.0000000000000000e+00 0.0000000000000000e+00 0.0000000000000000e+00 0.0000000000000000e+00 4.5000000000000000e+00 9.0000000000000013e-01 1 1 1
611 6 3.9839655192850500e+00 7.5412141676378228e+00 7.7253911805519566e+00 307 0.0000000000000000e+00 0.0000000000000000e+00 0.0000000000000000e+00 0.0000000000000000e+00 4.5000000000000000e+00 9.0000000000000013e-01 1 0 0
73 6 9.8185955628052035e+00 8.7125738630757379e+00 5.4277838838763603e+00 38 0.0000000000000000e+00 0.0000000000000000e+00 0.0000000000000000e+00 0.0000000000000000e+00 4.5000000000000000e+00 9.0000000000000013e-01 0 0 0
74 6 8.8012293564483173e+00 5.2404462860492984e+00 8.0236541064906763e+00 38 0.0000000000000000e+00 0.0000000000000000e+00 0.0000000000000000e+00 0.0000000000000000e+00 4.5000000000000000e+00 9.0000000000000013e-01 0 0 0
814 6 4.1451315076289283e+00 2.7911670282180472e+00 8.5612128068766538e+00 408 0.0000000000000000e+00 0.0000000000000000e+00 0.0000000000000000e+00 0.0000000000000000e+00 4.5000000000000000e+00 9.0000000000000013e-01 1 1 1
702 6 1.3981994790171248e+01 5.6463200292671587e+00 6.1645965983628077e+00 352 0.0000000000000000e+00 0.0000000000000000e+00 0.0000000000000000e+00 0.0000000000000000e+00 4.5000000000000000e+00 9.0000000000000013e-01 1 0 0
701 6 1.1444295964240526e+01 3.6074791075342416e+00 3.3123590827412368e+00 352 0.0000000000000000e+00 0.0000000000000000e+00 0.0000000000000000e+00 0.0000000000000000e+00 4.5000000000000000e+00 9.0000000000000013e-01 1 0 0
548 6 1.5682320753530103e+01 8.9939271537656111e+00 2.9321526379647525e+00 275 0.0000000000000000e+00 0.0000000000000000e+00 0.0000000000000000e+00 0.0000000000000000e+00 4.5000000000000000e+00 9.0000000000000013e-01 1 0 0
107 6 2.1640336058546566e+01 3.5431855461137829e+00 5.1904930320946114e+00 55 0.0000000000000000e+00 0.0000000000000000e+00 0.0000000000000000e+00 0.0000000000000000e+00 4.5000000000000000e+00 9.0000000000000013e-01 0 0 1
1004 6 2.0087252593722216e+01 8.2802326211760935e+00 6.2097812962600667e+00 503 0.0000000000000000e+00 0.0000000000000000e+00 0.0000000000000000e+00 0.0000000000000000e+00 4.5000000000000000e+00 9.0000000000000013e-01 0 2 1
1003 6 1.8481594262877529e+01 3.6265160984440352e+00 8.3510938431096964e+00 503 0.0000000000000000e+00 0.0000000000000000e+00 0.0000000000000000e+00 0.0000000000000000e+00 4.5000000000000000e+00 9.0000000000000013e-01 0 2 1
752 6 2.4764146609537914e+01 8.1283039624919411e+00 7.2298477401062895e+00 377 0.0000000000000000e+00 0.0000000000000000e+00 0.0000000000000000e+00 0.0000000000000000e+00 4.5000000000000000e+00 9.0000000000000013e-01 0 1 1
691 6 6.8536149646069768e+00 1.0960051564035993e+01 9.7334354699366585e+00 347 0.0000000000000000e+00 0.0000000000000000e+00 0.0000000000000000e+00 0.0000000000000000e+00 4.5000000000000000e+00 9.0000000000000013e-01 0 1 1
621 6 5.5682148045236035e+00 1.1058790763674926e+01 4.3724507729190716e+00 312 0.0000000000000000e+00 0.0000000000000000e+00 0.0000000000000000e+00 0.0000000000000000e+00 4.5000000000000000e+00 9.0000000000000013e-01 0 0 1
169 6 7.3285749739449724e+00 1.5678174711983004e+01 6.1171426710755412e+00 86 0.0000000000000000e+00 0.0000000000000000e+00 0.0000000000000000e+00 0.0000000000000000e+00 4.5000000000000000e+00 9.0000000000000013e-01 0 0 0
619 6 2.8553113369857295e+00 1.6502637274048237e+01 8.4244106851930347e+00 311 0.0000000000000000e+00 0.0000000000000000e+00 0.0000000000000000e+00 0.0000000000000000e+00 4.5000000000000000e+00 9.0000000000000013e-01 0 0 1
883 6 1.4205806022290179e+01 1.0588404851362586e+01 7.3513143994643260e+00 443 0.0000000000000000e+00 0.0000000000000000e+00 0.0000000000000000e+00 0.0000000000000000e+00 4.5000000000000000e+00 9.0000000000000013e-01 0 0 1
170 6 1.1113470944532262e+01 1.4085559827502788e+01 6.9805758619225342e+00 86 0.0000000000000000e+00 0.0000000000000000e+00 0.0000000000000000e+00 0.0000000000000000e+00 4.5000000000000000e+00 9.0000000000000013e-01 0 0 0
563 6 1.7657218564231435e+01 1.5304805450890996e+01 5.9171943694681737e+00 283 0.0000000000000000e+00 0.0000000000000000e+00 0.0000000000000000e+00 0.0000000000000000e+00 4.5000000000000000e+00 9.0000000000000013e-01 0 1 1
967 6 1.1840296057366265e+01 1.7682505524585842e+01 4.2570393661649302e+00 485 0.0000000000000000e+00 0.0000000000000000e+00 0.0000000000000000e+00 0.0000000000000000e+00 4.5000000000000000e+00 9.0000000000000013e-01 0 1 1
228 6 1.4055463087098099e+01 1.6778175191371325e+01 9.8500799062223265e+00 115 0.0000000000000000e+00 0.0000000000000000e+00 0.0000000000000000e+00 0.0000000000000000e+00 4.5000000000000000e+00 9.0000000000000013e-01 -1 1 1
884 6 1.1626555557513452e+01 1.0602322754023106e+01 9.9746570127558005e+00 443 0.0000000000000000e+00 0.0000000000000000e+00 0.0000000000000000e+00 0.0000000000000000e+00 4.5000000000000000e+00 9.0000000000000013e-01 0 0 1
564 6 1.5401108812139755e+01 1.3951696685022025e+01 3.7393087579093081e+00 283 0.0000000000000000e+00 0.0000000000000000e+00 0.0000000000000000e+00 0.0000000000000000e+00 4.5000000000000000e+00 9.0000000000000013e-01 0 1 1
592 6 2.2881552902465135e+01 1.3552198624866088e+01 6.9885968710841810e+00 297 0.0000000000000000e+00 0.0000000000000000e+00 0.0000000000000000e+00 0.0000000000000000e+00 4.5000000000000000e+00 9.0000000000000013e-01 1 1 1
591 6 2.1862691977407074e+01 1.1970149014551479e+01 9.3740983931636990e+00 297 0.0000000000000000e+00 0.0000000000000000e+00 0.0000000000000000e+00 0.0000000000000000e+00 4.5000000000000000e+00 9.0000000000000013e-01 1 1 1
871 6 2.3859770385120065e+01 1.6599135893634276e+01 1.0237270701459895e+01 437 0.0000000000000000e+00 0.0000000000000000e+00 0.0000000000000000e+00 0.0000000000000000e+00 4.5000000000000000e+00 9.0000000000000013e-01 0 -1 0
710 6 7.2975674174765741e+00 2.3347238759516738e+01 3.9505245692230306e+00 356 0.0000000000000000e+00 0.0000000000000000e+00 0.0000000000000000e+00 0.0000000000000000e+00 4.5000000000000000e+00 9.0000000000000013e-01 0 0 1
53 6 4.0600205392095230e+00 2.0199373533093322e+01 5.3898387611686900e+00 28 0.0000000000000000e+00 0.0000000000000000e+00 0.0000000000000000e+00 0.0000000000000000e+00 4.5000000000000000e+00 9.0000000000000013e-01 1 0 0
387 6 9.3682147496113899e+00 2.0473831892892374e+01 7.6304502048224707e+00 195 0.0000000000000000e+00 0.0000000000000000e+00 0.0000000000000000e+00 0.0000000000000000e+00 4.5000000000000000e+00 9.0000000000000013e-01 1 -1 0
711 6 6.1587033463753613e+00 2.3902730502177175e+01 9.0086414929297014e+00 357 0.0000000000000000e+00 0.0000000000000000e+00 0.0000000000000000e+00 0.0000000000000000e+00 4.5000000000000000e+00 9.0000000000000013e-01 1 0 1
620 6 5.2101345454388373e+00 1.8939735181247361e+01 9.8270279469206692e+00 311 0.0000000000000000e+00 0.0000000000000000e+00 0.0000000000000000e+00 0.0000000000000000e+00 4.5000000000000000e+00 9.0000000000000013e-01 0 0 1
615 6 1.7183226732252784e+01 1.9449921372924791e+01 3.3572159585284322e+00 309 0.0000000000000000e+00 0.0000000000000000e+00 0.0000000000000000e+00 0.0000000000000000e+00 4.5000000000000000e+00 9.0000000000000013e-01 0 0 0
227 6 1.6364120506616530e+01 1.9362280695542001e+01 8.1050444715766634e+00 115 0.0000000000000000e+00 0.0000000000000000e+00 0.0000000000000000e+00 0.0000000000000000e+00 4.5000000000000000e+00 9.0000000000000013e-01 -1 1 1
545 6 1.4815297561604870e+01 2.3125495387942827e+01 5.4063756691874438e+00 274 0.0000000000000000e+00 0.0000000000000000e+00 0.0000000000000000e+00 0.0000000000000000e+00 4.5000000000000000e+00 9.0000000000000013e-01 0 0 0
388 6 1.2054881074201239e+01 2.1160940880083455e+01 9.1243205498590054e+00 195 0.0000000000000000e+00 0.0000000000000000e+00 0.0000000000000000e+00 0.0000000000000000e+00 4.5000000000000000e+00 9.0000000000000013e-01 1 -1 0
709 6 1.0982619570206246e+01 2.2091808356384885e+01 2.8901138281738401e+00 356 0.0000000000000000e+00 0.0000000000000000e+00 0.0000000000000000e+00 0.0000000000000000e+00 4.5000000000000000e+00 9.0000000000000013e-01 0 0 1
546 6 1.0567408264316896e+01 2.5203174928839527e+01 7.0871157676879220e+00 274 0.0000000000000000e+00 0.0000000000000000e+00 0.0000000000000000e+00 0.0000000000000000e+00 4.5000000000000000e+00 9.0000000000000013e-01 0 0 0
27 6 2.3312088629886279e+01 1.8484757256451534e+01 5.2488164980560281e+00 15 0.0000000000000000e+00 0.0000000000000000e+00 0.0000000000000000e+00 0.0000000000000000e+00 4.5000000000000000e+00 9.0000000000000013e-01 -1 0 0
352 6 1.9892658144580846e+01 2.3273123326106884e+01 6.6667490028384240e+00 177 0.0000000000000000e+00 0.0000000000000000e+00 0.0000000000000000e+00 0.0000000000000000e+00 4.5000000000000000e+00 9.0000000000000013e-01 1 0 1
934 6 2.4317827448323794e+01 2.1788903100652547e+01 9.4383711019317218e+00 468 0.0000000000000000e+00 0.0000000000000000e+00 0.0000000000000000e+00 0.0000000000000000e+00 4.5000000000000000e+00 9.0000000000000013e-01 0 -1 1
28 6 2.1371301573833119e+01 1.9050010474670994e+01 7.1402355115061225e+00 15 0.0000000000000000e+00 0.0000000000000000e+00 0.0000000000000000e+00 0.0000000000000000e+00 4.5000000000000000e+00 9.0000000000000013e-01 -1 0 0
933 6 2.3200446871285614e+01 2.5714414494408441e+01 9.7604712479996518e+00 468 0.0000000000000000e+00 0.0000000000000000e+00 0.0000000000000000e+00 0.0000000000000000e+00 4.5000000000000000e+00 9.0000000000000013e-01 0 -1 1
138 6 2.5957374773573200e+01 2.3773318538951500e+01 5.5466994733183714e+00 70 0.0000000000000000e+00 0.0000000000000000e+00 0.0000000000000000e+00 0.0000000000000000e+00 4.5000000000000000e+00 9.0000000000000013e-01 1 0 1
359 6 8.8253337114004218e+00 7.5875258943798141e+00 1.3658943630834164e+01 181 0.0000000000000000e+00 0.0000000000000000e+00 0.0000000000000000e+00 0.0000000000000000e+00 4.5000000000000000e+00 9.0000000000000013e-01 0 1 0
612 6 4.9798426738400687e+00 6.5952787574958780e+00 1.0741888261935378e+01 307 0.0000000000000000e+00 0.0000000000000000e+00 0.0000000000000000e+00 0.0000000000000000e+00 4.5000000000000000e+00 9.0000000000000013e-01 1 0 0
296 6 5.0841347240436008e+00 6.8375538356115504e+00 1.6216728532291036e+01 149 0.0000000000000000e+00 0.0000000000000000e+00 0.0000000000000000e+00 0.0000000000000000e+00 4.5000000000000000e+00 9.0000000000000013e-01 0 1 0
452 6 8.4618595816400504e+00 9.2192470065047516e+00 1.8182508964925944e+01 227 0.0000000000000000e+00 0.0000000000000000e+00 0.0000000000000000e+00 0.0000000000000000e+00 4.5000000000000000e+00 9.0000000000000013e-01 0 1 1
360 6 9.2671470425363403e+00 3.5414963806343787e+00 1.3461913502441936e+01 181 0.0000000000000000e+00 0.0000000000000000e+00 0.0000000000000000e+00 0.0000000000000000e+00 4.5000000000000000e+00 9.0000000000000013e-01 0 1 0
242 6 3.8841960399389577e+00 1.0473006922905785e+01 1.3008646802133622e+01 122 0.0000000000000000e+00 0.0000000000000000e+00 0.0000000000000000e+00 0.0000000000000000e+00 4.5000000000000000e+00 9.0000000000000013e-01 0 1 0
152 6 3.0027711627796281e+00 3.0932168272339382e+00 1.4185703979311464e+01 77 0.0000000000000000e+00 0.0000000000000000e+00 0.0000000000000000e+00 0.0000000000000000e+00 4.5000000000000000e+00 9.0000000000000013e-01 1 0 0
845 6 1.3813750470389657e+01 7.9027904249702230e+00 1.3718648217080151e+01 424 0.0000000000000000e+00 0.0000000000000000e+00 0.0000000000000000e+00 0.0000000000000000e+00 4.5000000000000000e+00 9.0000000000000013e-01 0 1 0
846 6 1.2735467468242874e+01 6.0068564747249793e+00 1.0789172592374767e+01 424 0.0000000000000000e+00 0.0000000000000000e+00 0.0000000000000000e+00 0.0000000000000000e+00 4.5000000000000000e+00 9.0000000000000013e-01 0 1 0
269 6 1.8129807808792719e+01 7.4603000735212914e+00 1.2743332583579567e+01 136 0.0000000000000000e+00 0.0000000000000000e+00 0.0000000000000000e+00 0.0000000000000000e+00 4.5000000000000000e+00 9.0000000000000013e-01 0 0 0
488 6 1.7864855321837133e+01 4.3713118966513473e+00 1.6663263048442257e+01 245 0.0000000000000000e+00 0.0000000000000000e+00 0.0000000000000000e+00 0.0000000000000000e+00 4.5000000000000000e+00 9.0000000000000013e-01 0 0 1
600 6 1.4141445768960075e+01 2.9120501608301721e+00 1.4064339566773146e+01 301 0.0000000000000000e+00 0.0000000000000000e+00 0.0000000000000000e+00 0.0000000000000000e+00 4.5000000000000000e+00 9.0000000000000013e-01 0 0 0
829 6 2.3192003097958615e+01 5.3821003556858722e+00 1.5030151234307176e+01 416 0.0000000000000000e+00 0.0000000000000000e+00 0.0000000000000000e+00 0.0000000000000000e+00 4.5000000000000000e+00 9.0000000000000013e-01 0 1 0
77 6 2.0045207478219393e+01 8.4302946804559813e+00 1.7535225974272279e+01 40 0.0000000000000000e+00 0.0000000000000000e+00 0.0000000000000000e+00 0.0000000000000000e+00 4.5000000000000000e+00 9.0000000000000013e-01 0 0 1
270 6 2.1430117867647173e+01 6.7274643883303531e+00 1.0950528544885987e+01 136 0.0000000000000000e+00 0.0000000000000000e+00 0.0000000000000000e+00 0.0000000000000000e+00 4.5000000000000000e+00 9.0000000000000013e-01 0 0 0
653 6 2.5764832695665707e+01 8.5420377431675281e+00 1.7175184654103127e+01 328 0.0000000000000000e+00 0.0000000000000000e+00 0.0000000000000000e+00 0.0000000000000000e+00 4.5000000000000000e+00 9.0000000000000013e-01 0 0 0
693 6 8.6570292101813457e+00 1.3871211374195322e+01 1.4500058735594738e+01 348 0.0000000000000000e+00 0.0000000000000000e+00 0.0000000000000000e+00 0.0000000000000000e+00 4.5000000000000000e+00 9.0000000000000013e-01 0 0 0
241 6 4.5016812714118704e+00 1.2329206218870848e+01 1.6328002463467694e+01 122 0.0000000000000000e+00 0.0000000000000000e+00 0.0000000000000000e+00 0.0000000000000000e+00 4.5000000000000000e+00 9.0000000000000013e-01 0 1 0
63 6 9.4149451330649967e+00 1.6878923243118408e+01 1.1300245695982527e+01 33 0.0000000000000000e+00 0.0000000000000000e+00 0.0000000000000000e+00 0.0000000000000000e+00 4.5000000000000000e+00 9.0000000000000013e-01 0 1 0
888 6 3.1183565565639468e+00 1.4895443880842691e+01 1.2776913417630402e+01 445 0.0000000000000000e+00 0.0000000000000000e+00 0.0000000000000000e+00 0.0000000000000000e+00 4.5000000000000000e+00 9.0000000000000013e-01 0 0 0
679 6 1.6770401419907294e+01 1.3227625155548207e+01 1.0672012116463302e+01 341 0.0000000000000000e+00 0.0000000000000000e+00 0.0000000000000000e+00 0.0000000000000000e+00 4.5000000000000000e+00 9.0000000000000013e-01 0 0 0
694 6 1.0663912325572504e+01 1.3271052175556584e+01 1.7594322678030988e+01 348 0.0000000000000000e+00 0.0000000000000000e+00 0.0000000000000000e+00 0.0000000000000000e+00 4.5000000000000000e+00 9.0000000000000013e-01 0 0 0
33 6 1.3341287806055693e+01 1.2863428108327216e+01 1.3913439132513910e+01 18 0.0000000000000000e+00 0.0000000000000000e+00 0.0000000000000000e+00 0.0000000000000000e+00 4.5000000000000000e+00 9.0000000000000013e-01 0 0 0
34 6 1.5751595073315285e+01 1.4306926637361919e+01 1.7774191252424231e+01 18 0.0000000000000000e+00 0.0000000000000000e+00 0.0000000000000000e+00 0.0000000000000000e+00 4.5000000000000000e+00 9.0000000000000013e-01 0 0 0
873 6 2.3942290691747527e+01 1.0974205382978075e+01 1.3911031229589375e+01 438 0.0000000000000000e+00 0.0000000000000000e+00 0.0000000000000000e+00 0.0000000000000000e+00 4.5000000000000000e+00 9.0000000000000013e-01 0 0 1
914 6 2.5475615189251887e+01 1.5907057849824399e+01 1.7894081027953000e+01 458 0.0000000000000000e+00 0.0000000000000000e+00 0.0000000000000000e+00 0.0000000000000000e+00 4.5000000000000000e+00 9.0000000000000013e-01 0 0 0
680 6 1.9391827445633478e+01 1.5877451358115831e+01 1.1476102060901052e+01 341 0.0000000000000000e+00 0.0000000000000000e+00 0.0000000000000000e+00 0.0000000000000000e+00 4.5000000000000000e+00 9.0000000000000013e-01 0 0 0
872 6 2.3788418543031685e+01 1.5855097921962479e+01 1.3050088572572813e+01 437 0.0000000000000000e+00 0.0000000000000000e+00 0.0000000000000000e+00 0.0000000000000000e+00 4.5000000000000000e+00 9.0000000000000013e-01 0 -1 0
78 6 1.9666964380843567e+01 1.2173415576163226e+01 1.4860457256303283e+01 40 0.0000000000000000e+00 0.0000000000000000e+00 0.0000000000000000e+00 0.0000000000000000e+00 4.5000000000000000e+00 9.0000000000000013e-01 0 0 1
783 6 2.0334993618081040e+01 1.7171845824267699e+01 1.5643251654818846e+01 393 0.0000000000000000e+00 0.0000000000000000e+00 0.0000000000000000e+00 0.0000000000000000e+00 4.5000000000000000e+00 9.0000000000000013e-01 1 0 1
499 6 3.5847138202511819e+00 2.3261657179883162e+01 1.7334908224430954e+01 251 0.0000000000000000e+00 0.0000000000000000e+00 0.0000000000000000e+00 0.0000000000000000e+00 4.5000000000000000e+00 9.0000000000000013e-01 1 1 -1
102 6 7.0363704896562673e+00 1.8313147892564025e+01 1.5989070203132218e+01 52 0.0000000000000000e+00 0.0000000000000000e+00 0.0000000000000000e+00 0.0000000000000000e+00 4.5000000000000000e+00 9.0000000000000013e-01 0 0 0
101 6 3.9198166451280567e+00 2.0205489234490713e+01 1.4035795211325297e+01 52 0.0000000000000000e+00 0.0000000000000000e+00 0.0000000000000000e+00 0.0000000000000000e+00 4.5000000000000000e+00 9.0000000000000013e-01 0 0 0
64 6 8.7444058832865430e+00 2.0346742708329565e+01 1.2487878996123246e+01 33 0.0000000000000000e+00 0.0000000000000000e+00 0.0000000000000000e+00 0.0000000000000000e+00 4.5000000000000000e+00 9.0000000000000013e-01 0 1 0
463 6 9.3984628357588598e+00 2.5247399161066131e+01 1.2804955588519688e+01 233 0.0000000000000000e+00 0.0000000000000000e+00 0.0000000000000000e+00 0.0000000000000000e+00 4.5000000000000000e+00 9.0000000000000013e-01 0 0 0
464 6 6.0571112316183040e+00 2.4502677979652411e+01 1.3494630203328745e+01 233 0.0000000000000000e+00 0.0000000000000000e+00 0.0000000000000000e+00 0.0000000000000000e+00 4.5000000000000000e+00 9.0000000000000013e-01 0 0 0
119 6 8.3200112782290212e+00 2.3816866658205932e+01 1.7464590909000819e+01 61 0.0000000000000000e+00 0.0000000000000000e+00 0.0000000000000000e+00 0.0000000000000000e+00 4.5000000000000000e+00 9.0000000000000013e-01 1 1 1
869 6 1.7693762583882311e+01 2.5506749407170165e+01 1.5023183086079825e+01 436 0.0000000000000000e+00 0.0000000000000000e+00 0.0000000000000000e+00 0.0000000000000000e+00 4.5000000000000000e+00 9.0000000000000013e-01 0 0 0
876 6 1.3732789487762631e+01 2.4030466177358718e+01 1.2833401897924176e+01 439 0.0000000000000000e+00 0.0000000000000000e+00 0.0000000000000000e+00 0.0000000000000000e+00 4.5000000000000000e+00 9.0000000000000013e-01 0 0 1
822 6 1.2688447457465655e+01 1.9081481280385059e+01 1.4260378929124567e+01 412 0.0000000000000000e+00 0.0000000000000000e+00 0.0000000000000000e+00 0.0000000000000000e+00 4.5000000000000000e+00 9.0000000000000013e-01 0 0 1
821 6 1.6354937540685452e+01 1.9910984289156989e+01 1.2754775296902805e+01 412 0.0000000000000000e+00 0.0000000000000000e+00 0.0000000000000000e+00 0.0000000000000000e+00 4.5000000000000000e+00 9.0000000000000013e-01 0 0 1
383 6 1.3157089605772716e+01 2.2924397667378756e+01 1.7693171035639963e+01 193 0.0000000000000000e+00 0.0000000000000000e+00 0.0000000000000000e+00 0.0000000000000000e+00 4.5000000000000000e+00 9.0000000000000013e-01 0 0 0
48 6 2.2754234630738132e+01 2.4477493790955670e+01 1.4068607959292533e+01 25 0.0000000000000000e+00 0.0000000000000000e+00 0.0000000000000000e+00 0.0000000000000000e+00 4.5000000000000000e+00 9.0000000000000013e-01 0 0 0
47 6 2.3579927460667463e+01 2.5414109659176141e+01 1.7435486591372943e+01 25 0.0000000000000000e+00 0.0000000000000000e+00 0.0000000000000000e+00 0.0000000000000000e+00 4.5000000000000000e+00 9.0000000000000013e-01 0 0 0
351 6 1.8935001933139720e+01 2.3566132648690143e+01 1.0628949356376665e+01 177 0.0000000000000000e+00 0.0000000000000000e+00 0.0000000000000000e+00 0.0000000000000000e+00 4.5000000000000000e+00 9.0000000000000013e-01 1 0 1
870 6 1.8388796571624091e+01 2.3286011716427254e+01 1.7089771520085275e+01 436 0.0000000000000000e+00 0.0000000000000000e+00 0.0000000000000000e+00 0.0000000000000000e+00 4.5000000000000000e+00 9.0000000000000013e-01 0 0 0
784 6 2.0870079913107499e+01 2.0083005526926037e+01 1.3475501487540033e+01 393 0.0000000000000000e+00 0.0000000000000000e+00 0.0000000000000000e+00 0.0000000000000000e+00 4.5000000000000000e+00 9.0000000000000013e-01 1 0 1
992 6 2.5306898504938697e+01 2.0402082982724625e+01 1.5036158719917038e+01 497 0.0000000000000000e+00 0.0000000000000000e+00 0.0000000000000000e+00 0.0000000000000000e+00 4.5000000000000000e+00 9.0000000000000013e-01 0 0 1
368 6 3.6982597946529587e+00 9.6289135656594578e+00 2.0833975132084142e+01 185 0.0000000000000000e+00 0.0000000000000000e+00 0.0000000000000000e+00 0.0000000000000000e+00 4.5000000000000000e+00 9.0000000000000013e-01 0 1 1
893 6 7.4626764305676794e+00 2.7739278465882964e+00 2.5858601456265305e+01 448 0.0000000000000000e+00 0.0000000000000000e+00 0.0000000000000000e+00 0.0000000000000000e+00 4.5000000000000000e+00 9.0000000000000013e-01 1 1 0
295 6 6.6447060070656541e+00 3.1629671310005909e+00 1.8988543723873342e+01 149 0.0000000000000000e+00 0.0000000000000000e+00 0.0000000000000000e+00 0.0000000000000000e+00 4.5000000000000000e+00 9.0000000000000013e-01 0 1 0
741 6 7.5957264610223492e+00 6.4610383251832815e+00 2.2464021896372952e+01 372 0.0000000000000000e+00 0.0000000000000000e+00 0.0000000000000000e+00 0.0000000000000000e+00 4.5000000000000000e+00 9.0000000000000013e-01 1 0 0
244 6 2.8983360640503366e+00 3.2074895193635635e+00 2.3210628158492110e+01 123 0.0000000000000000e+00 0.0000000000000000e+00 0.0000000000000000e+00 0.0000000000000000e+00 4.5000000000000000e+00 9.0000000000000013e-01 1 0 0
554 6 1.1661143395936852e+01 6.8241938154703998e+00 2.5147799995994184e+01 278 0.0000000000000000e+00 0.0000000000000000e+00 0.0000000000000000e+00 0.0000000000000000e+00 4.5000000000000000e+00 9.0000000000000013e-01 0 1 0
699 6 1.5376565019192176e+01 7.7277611009339742e+00 2.2139903003251700e+01 351 0.0000000000000000e+00 0.0000000000000000e+00 0.0000000000000000e+00 0.0000000000000000e+00 4.5000000000000000e+00 9.0000000000000013e-01 0 0 0
451 6 1.0756385997901612e+01 6.2694424578966341e+00 1.8492458726259745e+01 227 0.0000000000000000e+00 0.0000000000000000e+00 0.0000000000000000e+00 0.0000000000000000e+00 4.5000000000000000e+00 9.0000000000000013e-01 0 1 1
655 6 1.1155779779864854e+01 1.0102649535144348e+01 2.2326518984761830e+01 329 0.0000000000000000e+00 0.0000000000000000e+00 0.0000000000000000e+00 0.0000000000000000e+00 4.5000000000000000e+00 9.0000000000000013e-01 1 0 0
553 6 1.4252149402194220e+01 4.3635946383695918e+00 2.5372457173275400e+01 278 0.0000000000000000e+00 0.0000000000000000e+00 0.0000000000000000e+00 0.0000000000000000e+00 4.5000000000000000e+00 9.0000000000000013e-01 0 1 0
700 6 1.4918903630327323e+01 9.2387284169038537e+00 1.8301446205149567e+01 351 0.0000000000000000e+00 0.0000000000000000e+00 0.0000000000000000e+00 0.0000000000000000e+00 4.5000000000000000e+00 9.0000000000000013e-01 0 0 0
742 6 1.0573964631202211e+01 3.2065933827964876e+00 2.2231964279930860e+01 372 0.0000000000000000e+00 0.0000000000000000e+00 0.0000000000000000e+00 0.0000000000000000e+00 4.5000000000000000e+00 9.0000000000000013e-01 1 0 0
422 6 1.5469833267058299e+01 2.8177061012860425e+00 2.0336600288713591e+01 212 0.0000000000000000e+00 0.0000000000000000e+00 0.0000000000000000e+00 0.0000000000000000e+00 4.5000000000000000e+00 9.0000000000000013e-01 0 1 0
225 6 1.8961716463740892e+01 5.4040993024625017e+00 2.5568095101165852e+01 114 0.0000000000000000e+00 0.0000000000000000e+00 0.0000000000000000e+00 0.0000000000000000e+00 4.5000000000000000e+00 9.0000000000000013e-01 0 0 0
984 6 2.3530044866508334e+01 4.1043384613540921e+00 2.0707279958393251e+01 493 0.0000000000000000e+00 0.0000000000000000e+00 0.0000000000000000e+00 0.0000000000000000e+00 4.5000000000000000e+00 9.0000000000000013e-01 0 0 0
226 6 2.0413325596681506e+01 7.2789946529799989e+00 2.2702463354530906e+01 114 0.0000000000000000e+00 0.0000000000000000e+00 0.0000000000000000e+00 0.0000000000000000e+00 4.5000000000000000e+00 9.0000000000000013e-01 0 0 0
604 6 2.5210009650790834e+01 8.4130795235698024e+00 2.2204523422468444e+01 303 0.0000000000000000e+00 0.0000000000000000e+00 0.0000000000000000e+00 0.0000000000000000e+00 4.5000000000000000e+00 9.0000000000000013e-01 0 0 0
339 6 2.4302879005088350e+01 5.5970968034158126e+00 2.5799540315644816e+01 171 0.0000000000000000e+00 0.0000000000000000e+00 0.0000000000000000e+00 0.0000000000000000e+00 4.5000000000000000e+00 9.0000000000000013e-01 0 1 0
912 6 4.9581937468107373e+00 1.5860803850587027e+01 2.0217289496692146e+01 457 0.0000000000000000e+00 0.0000000000000000e+00 0.0000000000000000e+00 0.0000000000000000e+00 4.5000000000000000e+00 9.0000000000000013e-01 0 0 0
656 6 7.7543430434032485e+00 1.1285672682003785e+01 2.2360021503468577e+01 329 0.0000000000000000e+00 0.0000000000000000e+00 0.0000000000000000e+00 0.0000000000000000e+00 4.5000000000000000e+00 9.0000000000000013e-01 1 0 0
133 6 1.0112272991800616e+01 1.5326544170872117e+01 2.3194295984787374e+01 68 0.0000000000000000e+00 0.0000000000000000e+00 0.0000000000000000e+00 0.0000000000000000e+00 4.5000000000000000e+00 9.0000000000000013e-01 1 0 0
134 6 1.3530775280020704e+01 1.4200541707330412e+01 2.2133042476876430e+01 68 0.0000000000000000e+00 0.0000000000000000e+00 0.0000000000000000e+00 0.0000000000000000e+00 4.5000000000000000e+00 9.0000000000000013e-01 1 0 0
147 6 1.1829022478358779e+01 1.7963047391967461e+01 1.9137745777457503e+01 75 0.0000000000000000e+00 0.0000000000000000e+00 0.0000000000000000e+00 0.0000000000000000e+00 4.5000000000000000e+00 9.0000000000000013e-01 0 0 1
925 6 1.8245965033337420e+01 1.5014173655279562e+01 2.1688154944388156e+01 464 0.0000000000000000e+00 0.0000000000000000e+00 0.0000000000000000e+00 0.0000000000000000e+00 4.5000000000000000e+00 9.0000000000000013e-01 0 0 0
35 6 2.3188785244987784e+01 1.4275948032265497e+01 2.3670378596215990e+01 19 0.0000000000000000e+00 0.0000000000000000e+00 0.0000000000000000e+00 0.0000000000000000e+00 4.5000000000000000e+00 9.0000000000000013e-01 0 0 0
926 6 2.0323097618424747e+01 1.3342584101673495e+01 2.0137727658511761e+01 464 0.0000000000000000e+00 0.0000000000000000e+00 0.0000000000000000e+00 0.0000000000000000e+00 4.5000000000000000e+00 9.0000000000000013e-01 0 0 0
290 6 1.9219916705411126e+01 1.1329418176742839e+01 2.4610252667680463e+01 146 0.0000000000000000e+00 0.0000000000000000e+00 0.0000000000000000e+00 0.0000000000000000e+00 4.5000000000000000e+00 9.0000000000000013e-01 0 0 0
354 6 1.9915712682818423e+01 1.8210677943015725e+01 2.4468438316905928e+01 178 0.0000000000000000e+00 0.0000000000000000e+00 0.0000000000000000e+00 0.0000000000000000e+00 4.5000000000000000e+00 9.0000000000000013e-01 0 -1 0
500 6 4.6970489721098714e+00 2.0816954579011728e+01 2.0382473946411238e+01 251 0.0000000000000000e+00 0.0000000000000000e+00 0.0000000000000000e+00 0.0000000000000000e+00 4.5000000000000000e+00 9.0000000000000013e-01 1 1 -1
578 6 9.7610713372816900e+00 2.3949987678628776e+01 2.5711427742436339e+01 290 0.0000000000000000e+00 0.0000000000000000e+00 0.0000000000000000e+00 0.0000000000000000e+00 4.5000000000000000e+00 9.0000000000000013e-01 0 0 0
959 6 4.2483068678599141e+00 2.3985907763665804e+01 2.4144003905494316e+01 481 0.0000000000000000e+00 0.0000000000000000e+00 0.0000000000000000e+00 0.0000000000000000e+00 4.5000000000000000e+00 9.0000000000000013e-01 1 0 0
697 6 5.8735719867140874e+00 1.8874271668274435e+01 2.4823533948423758e+01 350 0.0000000000000000e+00 0.0000000000000000e+00 0.0000000000000000e+00 0.0000000000000000e+00 4.5000000000000000e+00 9.0000000000000013e-01 0 0 0
960 6 6.8875059565901688e+00 2.4902396161085942e+01 2.1460996752878952e+01 481 0.0000000000000000e+00 0.0000000000000000e+00 0.0000000000000000e+00 0.0000000000000000e+00 4.5000000000000000e+00 9.0000000000000013e-01 1 0 0
148 6 9.4263531086828678e+00 1.9837675862460188e+01 1.9874735875476340e+01 75 0.0000000000000000e+00 0.0000000000000000e+00 0.0000000000000000e+00 0.0000000000000000e+00 4.5000000000000000e+00 9.0000000000000013e-01 0 0 1
508 6 1.7333633624465865e+01 2.1359322775711217e+01 2.2162433993113503e+01 255 0.0000000000000000e+00 0.0000000000000000e+00 0.0000000000000000e+00 0.0000000000000000e+00 4.5000000000000000e+00 9.0000000000000013e-01 -1 0 0
88 6 1.2653685826807727e+01 1.9551460964611330e+01 2.3740228202241205e+01 45 0.0000000000000000e+00 0.0000000000000000e+00 0.0000000000000000e+00 0.0000000000000000e+00 4.5000000000000000e+00 9.0000000000000013e-01 0 0 1
507 6 1.6391453800980109e+01 1.9271253463303292e+01 1.9409257123145444e+01 255 0.0000000000000000e+00 0.0000000000000000e+00 0.0000000000000000e+00 0.0000000000000000e+00 4.5000000000000000e+00 9.0000000000000013e-01 -1 0 0
384 6 1.2294727185622268e+01 2.3748295452690815e+01 2.1472713009366736e+01 193 0.0000000000000000e+00 0.0000000000000000e+00 0.0000000000000000e+00 0.0000000000000000e+00 4.5000000000000000e+00 9.0000000000000013e-01 0 0 0
87 6 1.5392438387658956e+01 1.9022555426636060e+01 2.5487660466176745e+01 45 0.0000000000000000e+00 0.0000000000000000e+00 0.0000000000000000e+00 0.0000000000000000e+00 4.5000000000000000e+00 9.0000000000000013e-01 0 0 1
580 6 1.4989062992641340e+01 2.3827958217559814e+01 2.5675767429400338e+01 291 0.0000000000000000e+00 0.0000000000000000e+00 0.0000000000000000e+00 0.0000000000000000e+00 4.5000000000000000e+00 9.0000000000000013e-01 0 0 0
579 6 1.6961886437284122e+01 2.5969463342035606e+01 2.4477131171339586e+01 291 0.0000000000000000e+00 0.0000000000000000e+00 0.0000000000000000e+00 0.0000000000000000e+00 4.5000000000000000e+00 9.0000000000000013e-01 0 0 0