LAMMPS data file via write_data, version 10 Jan 2015, timestep = 100000

1536 atoms
6 atom types
1024 bonds
5 bond types
512 angles
5 angle types

1.4451606015428382e+00 4.9554839398458327e+01 xlo xhi
1.4451606015428382e+00 4.9554839398458327e+01 ylo yhi
1.4451606015428382e+00 4.9554839398458327e+01 zlo zhi

Masses

1 40
2 90
3 90
4 62
5 62
6 42

Bond Coeffs # harmonic

1 1.506 4.77
2 1.506 4.41
3 1.506 4.14
4 1.506 4.095
5 1.506 4.05

Atoms # hybrid

200 6 7.4310018325604315e+00 5.2422570894250979e+00 6.5176809617941540e+00 68 0.0000000000000000e+00 0.0000000000000000e+00 0.0000000000000000e+00 0.0000000000000000e+00 4.5000000000000000e+00 9.0000000000000013e-01 0 1 0
19 1 8.0310138867479974e+00 7.5425037499394794e+00 3.6938283865152197e+00 8 0.0000000000000000e+00 3.4852564667034880e-01 3.3593959318959371e-01 -2.4228420241655346e-01 5.0000000000000000e+00 5.8320000000000005e-01 0 0 0
199 1 8.6216908293569201e+00 2.8438648634856296e+00 3.7857059501880861e+00 68 0.0000000000000000e+00 -1.8868333386612440e-01 -1.6190980375099698e-01 -4.8085112869835123e-01 5.0000000000000000e+00 5.8320000000000005e-01 0 1 0
78 6 4.4393209117673820e+00 9.0814418524755425e+00 6.2310165651007541e+00 27 0.0000000000000000e+00 0.0000000000000000e+00 0.0000000000000000e+00 0.0000000000000000e+00 4.5000000000000000e+00 9.0000000000000013e-01 0 0 0
394 1 5.7403691607896130e+00 5.4781382736605906e+00 2.8751210870127801e+00 133 0.0000000000000000e+00 3.4280427861425355e-01 1.3051613314293764e-01 3.9810473892328418e-01 5.0000000000000000e+00 5.8320000000000005e-01 1 0 0
395 6 2.4880682199160056e+00 4.0316941905306329e+00 4.2258513970386051e+00 133 0.0000000000000000e+00 0.0000000000000000e+00 0.0000000000000000e+00 0.0000000000000000e+00 4.5000000000000000e+00 9.0000000000000013e-01 1 0 0
20 6 1.1838743557146481e+01 5.9484856620570632e+00 4.9955266691119364e+00 8 0.0000000000000000e+00 0.0000000000000000e+00 0.0000000000000000e+00 0.0000000000000000e+00 4.5000000000000000e+00 9.0000000000000013e-01 0 0 0
21 6 1.3242299859237717e+01 4.4507580120842567e+00 7.7487789837105350e+00 8 0.0000000000000000e+00 0.0000000000000000e+00 0.0000000000000000e+00 0.0000000000000000e+00 4.5000000000000000e+00 9.0000000000000013e-01 0 0 0
623 6 1.6023775004844179e+01 7.8837252835847949e+00 4.5778087280059463e+00 209 0.0000000000000000e+00 0.0000000000000000e+00 0.0000000000000000e+00 0.0000000000000000e+00 4.5000000000000000e+00 9.0000000000000013e-01 0 1 0
1450 1 1.1346955491585922e+01 7.7597260214371024e+00 2.0420457511467163e+00 485 0.0000000000000000e+00 2.7434752322544576e-01 6.4587686641332104e-02 -4.6215686810257894e-01 5.0000000000000000e+00 5.8320000000000005e-01 0 0 0
660 6 2.2208719958664911e+01 5.0774651560083051e+00 4.2057318961859949e+00 221 0.0000000000000000e+00 0.0000000000000000e+00 0.0000000000000000e+00 0.0000000000000000e+00 4.5000000000000000e+00 9.0000000000000013e-01 0 0 0
264 6 2.2503346198122951e+01 3.3613115908625941e+00 9.3168244638006854e+00 89 0.0000000000000000e+00 0.0000000000000000e+00 0.0000000000000000e+00 0.0000000000000000e+00 4.5000000000000000e+00 9.0000000000000013e-01 0 0 1
624 6 1.8057354067428584e+01 5.7778181690124573e+00 6.5252439538736002e+00 209 0.0000000000000000e+00 0.0000000000000000e+00 0.0000000000000000e+00 0.0000000000000000e+00 4.5000000000000000e+00 9.0000000000000013e-01 0 1 0
174 6 2.1974293105626316e+01 8.0680673157688148e+00 7.9857231805574349e+00 59 0.0000000000000000e+00 0.0000000000000000e+00 0.0000000000000000e+00 0.0000000000000000e+00 4.5000000000000000e+00 9.0000000000000013e-01 0 0 0
77 6 7.5890286120771924e+00 1.0640433691719423e+01 6.6599776678554328e+00 27 0.0000000000000000e+00 0.0000000000000000e+00 0.0000000000000000e+00 0.0000000000000000e+00 4.5000000000000000e+00 9.0000000000000013e-01 0 0 0
656 6 6.2697237527937091e+00 1.5436100665251301e+01 8.5432599098560651e+00 220 0.0000000000000000e+00 0.0000000000000000e+00 0.0000000000000000e+00 0.0000000000000000e+00 4.5000000000000000e+00 9.0000000000000013e-01 0 0 1
657 6 3.5846667792949014e+00 1.4319279549312951e+01 6.4317039738287489e+00 220 0.0000000000000000e+00 0.0000000000000000e+00 0.0000000000000000e+00 0.0000000000000000e+00 4.5000000000000000e+00 9.0000000000000013e-01 0 0 1
1029 6 8.4595562790263266e+00 1.7408520989482579e+01 4.8582329705103593e+00 344 0.0000000000000000e+00 0.0000000000000000e+00 0.0000000000000000e+00 0.0000000000000000e+00 4.5000000000000000e+00 9.0000000000000013e-01 1 0 1
1179 6 4.8037751365362915e+00 1.3121080916737464e+01 2.2223563491267098e+00 394 0.0000000000000000e+00 0.0000000000000000e+00 0.0000000000000000e+00 0.0000000000000000e+00 4.5000000000000000e+00 9.0000000000000013e-01 0 0 1
1451 6 9.3078306765441141e+00 1.1075787654456191e+01 1.7644858907065961e+00 485 0.0000000000000000e+00 0.0000000000000000e+00 0.0000000000000000e+00 0.0000000000000000e+00 4.5000000000000000e+00 9.0000000000000013e-01 0 0 0
1178 6 1.7147723634145309e+00 1.4624782648853833e+01 2.2522814150751618e+00 394 0.0000000000000000e+00 0.0000000000000000e+00 0.0000000000000000e+00 0.0000000000000000e+00 4.5000000000000000e+00 9.0000000000000013e-01 0 0 1
76 1 1.0787978395118909e+01 1.1654675995723263e+01 8.1555864838127583e+00 27 0.0000000000000000e+00 3.0664602162580892e-02 5.0692538026672791e-02 5.3807072672895429e-01 5.0000000000000000e+00 5.8320000000000005e-01 0 0 0
622 1 1.3547674424405461e+01 9.6289993988983866e+00 3.5967474827228547e+00 209 0.0000000000000000e+00 -4.7558774633412110e-01 1.8142494927883981e-01 1.8421596596387133e-01 5.0000000000000000e+00 5.8320000000000005e-01 0 1 0
1463 6 1.4349200713103130e+01 9.7252247955288684e+00 8.1461694583252999e+00 489 0.0000000000000000e+00 0.0000000000000000e+00 0.0000000000000000e+00 0.0000000000000000e+00 4.5000000000000000e+00 9.0000000000000013e-01 0 0 0
1462 1 1.1422676950204913e+01 1.0351241661352162e+01 5.4596561289127292e+00 489 0.0000000000000000e+00 -3.3907000438476431e-01 1.6314228522797181e-01 3.8916764086587541e-01 5.0000000000000000e+00 5.8320000000000005e-01 0 0 0
1447 1 1.1688894400447539e+01 1.3264315305796108e+01 5.3287266797804573e+00 484 0.0000000000000000e+00 4.2992120666537398e-01 -2.4400800531837713e-01 -2.2058430315853295e-01 5.0000000000000000e+00 5.8320000000000005e-01 0 0 0
1448 6 1.4037798143591250e+01 1.4302415464314478e+01 9.3407559262192379e+00 484 0.0000000000000000e+00 0.0000000000000000e+00 0.0000000000000000e+00 0.0000000000000000e+00 4.5000000000000000e+00 9.0000000000000013e-01 0 0 0
193 1 1.0170703391373758e+01 1.4467047018550879e+01 7.5024766828034304e+00 66 0.0000000000000000e+00 2.0781392411601543e-01 -1.7573969735070638e-01 -4.6792725740074725e-01 5.0000000000000000e+00 5.8320000000000005e-01 0 0 0
688 1 1.4323873114327327e+01 1.3011727069290263e+01 3.5178623634896495e+00 231 0.0000000000000000e+00 3.8897785684862163e-01 -1.0829313106063428e-01 -3.6055074267922055e-01 5.0000000000000000e+00 5.8320000000000005e-01 0 0 1
778 1 1.6786238395859478e+01 1.1653611148276223e+01 2.1912264533959243e+00 261 0.0000000000000000e+00 5.3445577919172560e-01 -4.4848564441303029e-02 7.3357505792657179e-02 5.0000000000000000e+00 5.8320000000000005e-01 0 0 0
779 6 1.7260131911298068e+01 1.2596828491342217e+01 6.0137717170825882e+00 261 0.0000000000000000e+00 0.0000000000000000e+00 0.0000000000000000e+00 0.0000000000000000e+00 4.5000000000000000e+00 9.0000000000000013e-01 0 0 0
1452 6 1.0561179802124661e+01 1.4188904905443732e+01 1.6753906491984223e+00 485 0.0000000000000000e+00 0.0000000000000000e+00 0.0000000000000000e+00 0.0000000000000000e+00 4.5000000000000000e+00 9.0000000000000013e-01 0 0 0
194 6 1.3458462481803991e+01 1.6697402123172672e+01 5.1803977060833306e+00 66 0.0000000000000000e+00 0.0000000000000000e+00 0.0000000000000000e+00 0.0000000000000000e+00 4.5000000000000000e+00 9.0000000000000013e-01 0 0 0
173 6 2.0561332400536017e+01 9.5625285693184132e+00 4.4845149449486170e+00 59 0.0000000000000000e+00 0.0000000000000000e+00 0.0000000000000000e+00 0.0000000000000000e+00 4.5000000000000000e+00 9.0000000000000013e-01 0 0 0
848 6 2.5299810749502328e+01 1.1304921125326906e+01 2.2237654084856513e+00 284 0.0000000000000000e+00 0.0000000000000000e+00 0.0000000000000000e+00 0.0000000000000000e+00 4.5000000000000000e+00 9.0000000000000013e-01 0 0 1
780 6 1.8933531442676223e+01 1.2217859016373767e+01 9.1196825353579136e+00 261 0.0000000000000000e+00 0.0000000000000000e+00 0.0000000000000000e+00 0.0000000000000000e+00 4.5000000000000000e+00 9.0000000000000013e-01 0 0 0
774 6 2.1471339634614800e+01 1.4800933267683950e+01 5.0913982873644805e+00 259 0.0000000000000000e+00 0.0000000000000000e+00 0.0000000000000000e+00 0.0000000000000000e+00 4.5000000000000000e+00 9.0000000000000013e-01 0 0 0
773 6 2.4107380339775666e+01 1.2780715842641053e+01 7.0118022887536284e+00 259 0.0000000000000000e+00 0.0000000000000000e+00 0.0000000000000000e+00 0.0000000000000000e+00 4.5000000000000000e+00 9.0000000000000013e-01 0 0 0
172 1 1.9411639792008682e+01 1.1688867813403084e+01 1.4865949837040033e+00 59 0.0000000000000000e+00 5.2351504099573776e-01 4.7872982040862960e-02 -1.2911014964651760e-01 5.0000000000000000e+00 5.8320000000000005e-01 0 0 0
1028 6 7.4451296950655959e+00 2.0756790535685841e+01 6.0780304774314473e+00 344 0.0000000000000000e+00 0.0000000000000000e+00 0.0000000000000000e+00 0.0000000000000000e+00 4.5000000000000000e+00 9.0000000000000013e-01 1 0 1
135 6 2.9321867013644569e+00 1.9620781337991609e+01 6.8577026635413807e+00 46 0.0000000000000000e+00 0.0000000000000000e+00 0.0000000000000000e+00 0.0000000000000000e+00 4.5000000000000000e+00 9.0000000000000013e-01 1 0 1
1527 6 4.0191178845130864e+00 2.4302613047227645e+01 5.4510909120835445e+00 510 0.0000000000000000e+00 0.0000000000000000e+00 0.0000000000000000e+00 0.0000000000000000e+00 4.5000000000000000e+00 9.0000000000000013e-01 0 0 1
128 6 4.3020699108222278e+00 1.8875945144182229e+01 2.2962194653667760e+00 44 0.0000000000000000e+00 0.0000000000000000e+00 0.0000000000000000e+00 0.0000000000000000e+00 4.5000000000000000e+00 9.0000000000000013e-01 0 0 1
1027 1 7.9685505076847472e+00 2.4964602977361807e+01 5.6023153935591372e+00 344 0.0000000000000000e+00 -2.3342388163116221e-01 -1.0039331115967982e-01 -4.7798448955864348e-01 5.0000000000000000e+00 5.8320000000000005e-01 1 0 1
195 6 1.3150375970252139e+01 1.8139738228161772e+01 2.9404821402888546e+00 66 0.0000000000000000e+00 0.0000000000000000e+00 0.0000000000000000e+00 0.0000000000000000e+00 4.5000000000000000e+00 9.0000000000000013e-01 0 0 0
942 6 1.5190470446090689e+01 2.1052200794842086e+01 7.9543539321922321e+00 315 0.0000000000000000e+00 0.0000000000000000e+00 0.0000000000000000e+00 0.0000000000000000e+00 4.5000000000000000e+00 9.0000000000000013e-01 1 0 1
350 6 1.0102094757459891e+01 2.3744186368664391e+01 1.9469844027131833e+00 118 0.0000000000000000e+00 0.0000000000000000e+00 0.0000000000000000e+00 0.0000000000000000e+00 4.5000000000000000e+00 9.0000000000000013e-01 1 0 0
941 6 1.2381619696707720e+01 2.3110082190879648e+01 8.6501166886895469e+00 315 0.0000000000000000e+00 0.0000000000000000e+00 0.0000000000000000e+00 0.0000000000000000e+00 4.5000000000000000e+00 9.0000000000000013e-01 1 0 1
940 1 9.8727137695522682e+00 2.5203664406174859e+01 7.7941414825630737e+00 315 0.0000000000000000e+00 -2.5477798469704033e-01 2.6632798208756515e-02 -4.7687724696538653e-01 5.0000000000000000e+00 5.8320000000000005e-01 1 0 1
1281 6 1.3943804217166797e+01 2.5196514440065581e+01 4.5184633172700650e+00 428 0.0000000000000000e+00 0.0000000000000000e+00 0.0000000000000000e+00 0.0000000000000000e+00 4.5000000000000000e+00 9.0000000000000013e-01 0 0 0
672 6 1.0697698445840848e+01 1.8114010681719549e+01 9.2151921371453192e+00 225 0.0000000000000000e+00 0.0000000000000000e+00 0.0000000000000000e+00 0.0000000000000000e+00 4.5000000000000000e+00 9.0000000000000013e-01 0 0 0
744 6 2.1136874239008453e+01 2.4372919839270693e+01 9.0197285622500534e+00 249 0.0000000000000000e+00 0.0000000000000000e+00 0.0000000000000000e+00 0.0000000000000000e+00 4.5000000000000000e+00 9.0000000000000013e-01 0 0 0
1311 6 1.7941978970298745e+01 1.7945585156286061e+01 5.2645206616314946e+00 438 0.0000000000000000e+00 0.0000000000000000e+00 0.0000000000000000e+00 0.0000000000000000e+00 4.5000000000000000e+00 9.0000000000000013e-01 0 0 0
1173 6 1.9468605913166044e+01 2.2352914511520048e+01 4.3008963420874116e+00 392 0.0000000000000000e+00 0.0000000000000000e+00 0.0000000000000000e+00 0.0000000000000000e+00 4.5000000000000000e+00 9.0000000000000013e-01 0 0 0
1172 6 2.2033634696916963e+01 2.5196622074199993e+01 4.3993451174249465e+00 392 0.0000000000000000e+00 0.0000000000000000e+00 0.0000000000000000e+00 0.0000000000000000e+00 4.5000000000000000e+00 9.0000000000000013e-01 0 0 0
800 6 2.3759613441672339e+01 2.0052269079868132e+01 8.1075501360545914e+00 268 0.0000000000000000e+00 0.0000000000000000e+00 0.0000000000000000e+00 0.0000000000000000e+00 4.5000000000000000e+00 9.0000000000000013e-01 0 0 0
801 6 2.3166290441111578e+01 1.9193269806824659e+01 4.1211377345744582e+00 268 0.0000000000000000e+00 0.0000000000000000e+00 0.0000000000000000e+00 0.0000000000000000e+00 4.5000000000000000e+00 9.0000000000000013e-01 0 0 0
1310 6 1.9306298294218159e+01 1.8954119443606068e+01 7.8191165966527523e+00 438 0.0000000000000000e+00 0.0000000000000000e+00 0.0000000000000000e+00 0.0000000000000000e+00 4.5000000000000000e+00 9.0000000000000013e-01 0 0 0
201 6 4.6633527964647481e+00 5.2470202874674712e+00 9.6699642180559824e+00 68 0.0000000000000000e+00 0.0000000000000000e+00 0.0000000000000000e+00 0.0000000000000000e+00 4.5000000000000000e+00 9.0000000000000013e-01 0 1 0
590 6 8.3268717154712508e+00 5.7920827507935604e+00 1.2546179105791163e+01 198 0.0000000000000000e+00 0.0000000000000000e+00 0.0000000000000000e+00 0.0000000000000000e+00 4.5000000000000000e+00 9.0000000000000013e-01 0 0 0
589 1 5.3527356232572529e+00 3.1549773873092741e+00 1.3959649246722710e+01 198 0.0000000000000000e+00 2.3159428658768924e-01 -2.7800783908440302e-01 4.0263061635643149e-01 5.0000000000000000e+00 5.8320000000000005e-01 0 0 0
1233 6 3.3634396032092004e+00 7.9641639131053550e+00 1.3334127987111829e+01 412 0.0000000000000000e+00 0.0000000000000000e+00 0.0000000000000000e+00 0.0000000000000000e+00 4.5000000000000000e+00 9.0000000000000013e-01 0 0 0
1324 1 2.5295851833678373e+00 4.0651183258248107e+00 1.2214378487608160e+01 443 0.0000000000000000e+00 4.5860383289572765e-01 2.0443152403562778e-01 2.0231431569174255e-01 5.0000000000000000e+00 5.8320000000000005e-01 1 1 0
587 6 5.5927216528924042e+00 6.0855314029949374e+00 1.7034769425408840e+01 197 0.0000000000000000e+00 0.0000000000000000e+00 0.0000000000000000e+00 0.0000000000000000e+00 4.5000000000000000e+00 9.0000000000000013e-01 1 1 0
1464 6 1.6723839050149053e+01 7.8927385032629731e+00 1.0309802561760806e+01 489 0.0000000000000000e+00 0.0000000000000000e+00 0.0000000000000000e+00 0.0000000000000000e+00 4.5000000000000000e+00 9.0000000000000013e-01 0 0 0
591 6 9.6751495042999505e+00 7.5801499317793164e+00 1.0062014104840184e+01 198 0.0000000000000000e+00 0.0000000000000000e+00 0.0000000000000000e+00 0.0000000000000000e+00 4.5000000000000000e+00 9.0000000000000013e-01 0 0 0
1470 6 1.2992208513519383e+01 5.9449047670377091e+00 1.3301108266005789e+01 491 0.0000000000000000e+00 0.0000000000000000e+00 0.0000000000000000e+00 0.0000000000000000e+00 4.5000000000000000e+00 9.0000000000000013e-01 1 0 0
1469 6 1.0211521185680905e+01 8.6678146783132668e+00 1.5504936827051077e+01 491 0.0000000000000000e+00 0.0000000000000000e+00 0.0000000000000000e+00 0.0000000000000000e+00 4.5000000000000000e+00 9.0000000000000013e-01 1 0 0
1461 6 1.5288374754826535e+01 7.7227886184047287e+00 1.7119359885808109e+01 488 0.0000000000000000e+00 0.0000000000000000e+00 0.0000000000000000e+00 0.0000000000000000e+00 4.5000000000000000e+00 9.0000000000000013e-01 0 0 0
262 1 1.6873759135019164e+01 3.7501782334777167e+00 1.1112997112465752e+01 89 0.0000000000000000e+00 2.3426547304246231e-02 2.5269083550644955e-01 -4.7816087494948217e-01 5.0000000000000000e+00 5.8320000000000005e-01 0 0 1
1329 6 1.2157354864037693e+01 3.6064303965524029e+00 1.7296924776786323e+01 444 0.0000000000000000e+00 0.0000000000000000e+00 0.0000000000000000e+00 0.0000000000000000e+00 4.5000000000000000e+00 9.0000000000000013e-01 0 1 0
294 6 1.1881350170389506e+01 1.5826382579212741e+00 1.2760295732332120e+01 99 0.0000000000000000e+00 0.0000000000000000e+00 0.0000000000000000e+00 0.0000000000000000e+00 4.5000000000000000e+00 9.0000000000000013e-01 0 1 0
263 6 1.9800122560539666e+01 3.9803396615068127e+00 1.0250175619771408e+01 89 0.0000000000000000e+00 0.0000000000000000e+00 0.0000000000000000e+00 0.0000000000000000e+00 4.5000000000000000e+00 9.0000000000000013e-01 0 0 1
437 6 2.3713265909026681e+01 3.5538154168941092e+00 1.3567482541249021e+01 147 0.0000000000000000e+00 0.0000000000000000e+00 0.0000000000000000e+00 0.0000000000000000e+00 4.5000000000000000e+00 9.0000000000000013e-01 0 1 1
1506 6 1.7949308663808942e+01 5.1550536462976151e+00 1.4437562303988821e+01 503 0.0000000000000000e+00 0.0000000000000000e+00 0.0000000000000000e+00 0.0000000000000000e+00 4.5000000000000000e+00 9.0000000000000013e-01 0 0 0
611 6 2.5047111755058527e+01 7.7928798175548968e+00 1.7227427270053170e+01 205 0.0000000000000000e+00 0.0000000000000000e+00 0.0000000000000000e+00 0.0000000000000000e+00 4.5000000000000000e+00 9.0000000000000013e-01 0 0 0
438 6 2.2603802677357880e+01 6.8525282310396323e+00 1.2559349718565112e+01 147 0.0000000000000000e+00 0.0000000000000000e+00 0.0000000000000000e+00 0.0000000000000000e+00 4.5000000000000000e+00 9.0000000000000013e-01 0 1 1
1232 6 5.3233591248571663e+00 1.1009576746510515e+01 1.2568177797051652e+01 412 0.0000000000000000e+00 0.0000000000000000e+00 0.0000000000000000e+00 0.0000000000000000e+00 4.5000000000000000e+00 9.0000000000000013e-01 0 0 0
547 1 7.7635949852464385e+00 1.4716496472653938e+01 1.3254285347666503e+01 184 0.0000000000000000e+00 1.3157418398527324e-01 1.0464487617452128e-01 -5.1455547776603117e-01 5.0000000000000000e+00 5.8320000000000005e-01 0 0 0
832 1 8.4618113927602341e+00 1.5790002185353559e+01 1.6196150775808427e+01 279 0.0000000000000000e+00 -7.4262262029439710e-02 -1.8259772811787012e-01 -5.0415482049114946e-01 5.0000000000000000e+00 5.8320000000000005e-01 0 0 0
655 1 8.7211848728748791e+00 1.4417674910647081e+01 1.0224681237233643e+01 220 0.0000000000000000e+00 3.2732072385787675e-01 5.7690788659082663e-02 -4.2728360609441685e-01 5.0000000000000000e+00 5.8320000000000005e-01 0 0 1
1231 1 9.1626790925868864e+00 1.1982875453484075e+01 1.3875109686162412e+01 412 0.0000000000000000e+00 -1.9160700061368452e-01 1.1316101122072766e-01 4.9346769879631419e-01 5.0000000000000000e+00 5.8320000000000005e-01 0 0 0
833 6 4.8804422267777827e+00 1.4163237790841359e+01 1.6646458613877215e+01 279 0.0000000000000000e+00 0.0000000000000000e+00 0.0000000000000000e+00 0.0000000000000000e+00 4.5000000000000000e+00 9.0000000000000013e-01 0 0 0
1278 6 3.2034528789918086e+00 1.6704064943830311e+01 1.2067829028385761e+01 427 0.0000000000000000e+00 0.0000000000000000e+00 0.0000000000000000e+00 0.0000000000000000e+00 4.5000000000000000e+00 9.0000000000000013e-01 1 0 0
1468 1 9.4187854252446961e+00 1.2866205837763948e+01 1.7020122890644721e+01 491 0.0000000000000000e+00 3.6093018729627768e-01 1.6458970305448428e-01 3.6833437600461710e-01 5.0000000000000000e+00 5.8320000000000005e-01 1 0 0
67 1 1.0438505852581784e+01 1.1884184129477795e+01 1.1395694056089100e+01 24 0.0000000000000000e+00 -2.4236933191379706e-01 1.1520895266007766e-02 4.8389502407023083e-01 5.0000000000000000e+00 5.8320000000000005e-01 0 0 0
68 6 1.3695339945109827e+01 1.0885792647572792e+01 1.2734656058507710e+01 24 0.0000000000000000e+00 0.0000000000000000e+00 0.0000000000000000e+00 0.0000000000000000e+00 4.5000000000000000e+00 9.0000000000000013e-01 0 0 0
548 6 1.1487276694469548e+01 1.5088021919798880e+01 1.4146692861095199e+01 184 0.0000000000000000e+00 0.0000000000000000e+00 0.0000000000000000e+00 0.0000000000000000e+00 4.5000000000000000e+00 9.0000000000000013e-01 0 0 0
549 6 1.4633055018534737e+01 1.5780078895169126e+01 1.4153475034239104e+01 184 0.0000000000000000e+00 0.0000000000000000e+00 0.0000000000000000e+00 0.0000000000000000e+00 4.5000000000000000e+00 9.0000000000000013e-01 0 0 0
1460 6 1.4783602936903945e+01 1.2168160032962424e+01 1.6940005029586029e+01 488 0.0000000000000000e+00 0.0000000000000000e+00 0.0000000000000000e+00 0.0000000000000000e+00 4.5000000000000000e+00 9.0000000000000013e-01 0 0 0
1449 6 1.6119214344611720e+01 1.6381466833758367e+01 1.0149591301792276e+01 484 0.0000000000000000e+00 0.0000000000000000e+00 0.0000000000000000e+00 0.0000000000000000e+00 4.5000000000000000e+00 9.0000000000000013e-01 0 0 0
610 1 2.5305606419512085e+01 1.1656838972712706e+01 1.5949963961044526e+01 205 0.0000000000000000e+00 6.1110001796030357e-03 2.5455962803225197e-02 5.4069140749096956e-01 5.0000000000000000e+00 5.8320000000000005e-01 0 0 0
69 6 1.8412590978222187e+01 9.7332877049901008e+00 1.4029690146168535e+01 24 0.0000000000000000e+00 0.0000000000000000e+00 0.0000000000000000e+00 0.0000000000000000e+00 4.5000000000000000e+00 9.0000000000000013e-01 0 0 0
648 6 2.1874094620468732e+01 1.5740218939801371e+01 9.9199775905315999e+00 217 0.0000000000000000e+00 0.0000000000000000e+00 0.0000000000000000e+00 0.0000000000000000e+00 4.5000000000000000e+00 9.0000000000000013e-01 0 0 0
647 6 2.3352294010680453e+01 1.2909185341838423e+01 1.1551554219742133e+01 217 0.0000000000000000e+00 0.0000000000000000e+00 0.0000000000000000e+00 0.0000000000000000e+00 4.5000000000000000e+00 9.0000000000000013e-01 0 0 0
189 6 1.9277823136393799e+01 1.4481296157467016e+01 1.3369733292878909e+01 64 0.0000000000000000e+00 0.0000000000000000e+00 0.0000000000000000e+00 0.0000000000000000e+00 4.5000000000000000e+00 9.0000000000000013e-01 0 0 0
188 6 2.1383215482809849e+01 1.2578615892155353e+01 1.6249085339340120e+01 64 0.0000000000000000e+00 0.0000000000000000e+00 0.0000000000000000e+00 0.0000000000000000e+00 4.5000000000000000e+00 9.0000000000000013e-01 0 0 0
43 1 2.4065837053727176e+01 1.6425327082009204e+01 1.4043111885412150e+01 16 0.0000000000000000e+00 4.6518146162812102e-01 -2.0355602825449579e-01 -1.8762636813299952e-01 5.0000000000000000e+00 5.8320000000000005e-01 0 0 0
646 1 2.5322569824136654e+01 1.0210139911850336e+01 1.3324814949212668e+01 217 0.0000000000000000e+00 -8.6410998913537804e-02 2.9037012679796936e-01 4.4860795905790141e-01 5.0000000000000000e+00 5.8320000000000005e-01 0 0 0
951 6 3.0697912520520489e+00 2.0495122013276308e+01 1.5346823958757936e+01 318 0.0000000000000000e+00 0.0000000000000000e+00 0.0000000000000000e+00 0.0000000000000000e+00 4.5000000000000000e+00 9.0000000000000013e-01 0 0 0
983 6 7.3609770803535923e+00 2.4099150568637789e+01 1.7127156837806062e+01 329 0.0000000000000000e+00 0.0000000000000000e+00 0.0000000000000000e+00 0.0000000000000000e+00 4.5000000000000000e+00 9.0000000000000013e-01 0 0 0
996 6 7.4506870075937393e+00 2.2265299420559312e+01 1.0904240340213358e+01 333 0.0000000000000000e+00 0.0000000000000000e+00 0.0000000000000000e+00 0.0000000000000000e+00 4.5000000000000000e+00 9.0000000000000013e-01 0 0 0
521 6 4.3747403017196023e+00 2.4880638138406454e+01 1.3326227837903122e+01 175 0.0000000000000000e+00 0.0000000000000000e+00 0.0000000000000000e+00 0.0000000000000000e+00 4.5000000000000000e+00 9.0000000000000013e-01 0 0 0
366 6 7.1935737953314103e+00 1.8428467423909400e+01 1.3661696552063585e+01 123 0.0000000000000000e+00 0.0000000000000000e+00 0.0000000000000000e+00 0.0000000000000000e+00 4.5000000000000000e+00 9.0000000000000013e-01 0 0 0
522 6 2.5839451324499736e+00 2.2349497652474600e+01 1.0391715694795030e+01 175 0.0000000000000000e+00 0.0000000000000000e+00 0.0000000000000000e+00 0.0000000000000000e+00 4.5000000000000000e+00 9.0000000000000013e-01 0 0 0
364 1 1.4220915214796770e+01 1.9661392864185256e+01 1.5970868225850417e+01 123 0.0000000000000000e+00 -4.1778522397920714e-01 -1.1937674778645027e-01 3.2285740925766876e-01 5.0000000000000000e+00 5.8320000000000005e-01 0 0 0
995 6 9.9244420040112828e+00 2.3180718756706149e+01 1.2531516894806117e+01 333 0.0000000000000000e+00 0.0000000000000000e+00 0.0000000000000000e+00 0.0000000000000000e+00 4.5000000000000000e+00 9.0000000000000013e-01 0 0 0
671 6 1.2994951098996594e+01 1.9159601271088569e+01 1.1773747704526542e+01 225 0.0000000000000000e+00 0.0000000000000000e+00 0.0000000000000000e+00 0.0000000000000000e+00 4.5000000000000000e+00 9.0000000000000013e-01 0 0 0
365 6 1.0194859261230789e+01 1.9776920916251303e+01 1.5797203532947224e+01 123 0.0000000000000000e+00 0.0000000000000000e+00 0.0000000000000000e+00 0.0000000000000000e+00 4.5000000000000000e+00 9.0000000000000013e-01 0 0 0
1261 1 1.4814339276883388e+01 2.2828065322602654e+01 1.5181321220724563e+01 422 0.0000000000000000e+00 -4.1983612372633361e-01 3.1566905966112876e-02 -3.4025355642839827e-01 5.0000000000000000e+00 5.8320000000000005e-01 0 0 0
670 1 1.6379801390971053e+01 1.9126621816667271e+01 1.4165408342596514e+01 225 0.0000000000000000e+00 -3.9828891775635678e-01 2.4178561273317539e-01 2.7556283197795928e-01 5.0000000000000000e+00 5.8320000000000005e-01 0 0 0
994 1 1.3230942447363050e+01 2.4825754962412709e+01 1.3478329879629440e+01 333 0.0000000000000000e+00 -2.7232551000901706e-01 4.1236900071535870e-01 -2.2096738774612254e-01 5.0000000000000000e+00 5.8320000000000005e-01 0 0 0
1282 1 1.6567481780235305e+01 1.8056469671620473e+01 1.7403261294611269e+01 429 0.0000000000000000e+00 4.9821007009180091e-01 1.0998170257925355e-01 -1.8088770675999932e-01 5.0000000000000000e+00 5.8320000000000005e-01 0 0 0
594 6 1.6122042665050042e+01 2.5497555641959107e+01 1.0582849428960721e+01 199 0.0000000000000000e+00 0.0000000000000000e+00 0.0000000000000000e+00 0.0000000000000000e+00 4.5000000000000000e+00 9.0000000000000013e-01 0 0 0
45 6 2.1912734307734706e+01 2.3513678096152248e+01 1.4906121807107287e+01 16 0.0000000000000000e+00 0.0000000000000000e+00 0.0000000000000000e+00 0.0000000000000000e+00 4.5000000000000000e+00 9.0000000000000013e-01 0 0 0
70 1 1.9314632820872319e+01 1.8343041474823821e+01 1.6487616711008290e+01 25 0.0000000000000000e+00 5.3263320238925127e-01 8.9228501179640568e-02 -3.7083825177640008e-02 5.0000000000000000e+00 5.8320000000000005e-01 0 0 0
593 6 1.8017772599174105e+01 2.2246038653732665e+01 1.1929858750539875e+01 199 0.0000000000000000e+00 0.0000000000000000e+00 0.0000000000000000e+00 0.0000000000000000e+00 4.5000000000000000e+00 9.0000000000000013e-01 0 0 0
1309 1 1.8589104741976527e+01 1.8345879338386030e+01 1.2637987890247000e+01 438 0.0000000000000000e+00 -4.5299895649777105e-01 -1.2889131719380023e-01 2.6685471546138667e-01 5.0000000000000000e+00 5.8320000000000005e-01 0 0 0
799 1 2.4139490242231798e+01 1.9151688865896702e+01 1.1454974696570806e+01 268 0.0000000000000000e+00 -4.4758151122442447e-01 -1.0332898974131248e-01 -2.8639801167099621e-01 5.0000000000000000e+00 5.8320000000000005e-01 0 0 0
592 1 2.1119976611826107e+01 1.9244774900100367e+01 1.1053473551996907e+01 199 0.0000000000000000e+00 -5.4098873345275755e-01 1.2598399950699623e-02 -1.4383153196134738e-02 5.0000000000000000e+00 5.8320000000000005e-01 0 0 0
652 1 2.1780344124104168e+01 1.7638888819845921e+01 1.5398760928122556e+01 219 0.0000000000000000e+00 2.5639309852062697e-01 -1.2521105648415612e-01 -4.6001511243122595e-01 5.0000000000000000e+00 5.8320000000000005e-01 0 0 0
44 6 2.4568758886992239e+01 2.1060917850265437e+01 1.5599127961108900e+01 16 0.0000000000000000e+00 0.0000000000000000e+00 0.0000000000000000e+00 0.0000000000000000e+00 4.5000000000000000e+00 9.0000000000000013e-01 0 0 0
524 6 2.2135780321048681e+00 5.5264803795681470e+00 2.0571449792320855e+01 176 0.0000000000000000e+00 0.0000000000000000e+00 0.0000000000000000e+00 0.0000000000000000e+00 4.5000000000000000e+00 9.0000000000000013e-01 1 1 0
1517 6 5.0466412024804477e+00 6.4266616382563386e+00 2.5242181582861093e+01 507 0.0000000000000000e+00 0.0000000000000000e+00 0.0000000000000000e+00 0.0000000000000000e+00 4.5000000000000000e+00 9.0000000000000013e-01 0 1 0
523 1 5.5073537078938815e+00 4.1205807709575897e+00 2.0648643855801740e+01 176 0.0000000000000000e+00 -4.1932170983677519e-01 -1.3894012511666077e-02 -3.4205967282900934e-01 5.0000000000000000e+00 5.8320000000000005e-01 1 1 0
1327 1 7.5613516796297322e+00 4.8600645821863520e+00 2.2683289066157105e+01 444 0.0000000000000000e+00 -2.8401811267382276e-01 -1.5593748551808104e-01 -4.3364375757469176e-01 5.0000000000000000e+00 5.8320000000000005e-01 0 1 0
586 1 3.9813035513746335e+00 2.9860859518785210e+00 1.8355815216915680e+01 197 0.0000000000000000e+00 -1.4855359806785892e-01 -8.2874092675821423e-02 -5.1390561921840516e-01 5.0000000000000000e+00 5.8320000000000005e-01 1 1 0
506 6 9.1261870251518626e+00 8.7122722937365680e+00 2.3016969570465804e+01 170 0.0000000000000000e+00 0.0000000000000000e+00 0.0000000000000000e+00 0.0000000000000000e+00 4.5000000000000000e+00 9.0000000000000013e-01 0 1 0
588 6 6.1820494947059519e+00 8.9363011647204580e+00 1.7901660905391587e+01 197 0.0000000000000000e+00 0.0000000000000000e+00 0.0000000000000000e+00 0.0000000000000000e+00 4.5000000000000000e+00 9.0000000000000013e-01 1 1 0
643 1 6.7877124589398052e+00 2.2007968055181841e+00 2.4080383188217400e+01 216 0.0000000000000000e+00 -1.4181112937425914e-02 2.8530829097503019e-01 4.5981947613902080e-01 5.0000000000000000e+00 5.8320000000000005e-01 0 1 0
505 1 9.3713158803038539e+00 5.0473152826219234e+00 2.5128997750145416e+01 170 0.0000000000000000e+00 -3.1248993761208599e-01 1.5132494025978685e-01 -4.1531655570969794e-01 5.0000000000000000e+00 5.8320000000000005e-01 0 1 0
456 6 1.6190603919341504e+00 2.1393215269241170e+00 2.4284620972808256e+01 153 0.0000000000000000e+00 0.0000000000000000e+00 0.0000000000000000e+00 0.0000000000000000e+00 4.5000000000000000e+00 9.0000000000000013e-01 1 1 0