LAMMPS data file via write_data, version 10 Jan 2015, timestep = 100000

1024 atoms
6 atom types
0 bonds
5 bond types
0 angles
5 angle types

9.3424892144245621e+00 4.0657510785576008e+01 xlo xhi
9.3424892144245621e+00 4.0657510785576008e+01 ylo yhi
9.3424892144245621e+00 4.0657510785576008e+01 zlo zhi

Masses

1 40
2 90
3 90
4 62
5 62
6 42

Bond Coeffs # harmonic

1 1.506 4.77
2 1.506 4.41
3 1.506 4.14
4 1.506 4.095
5 1.506 4.05

Atoms # hybrid

489 1 1.0955730044904167e+01 1.3054625683392217e+01 1.2248856626651692e+01 490 0.0000000000000000e+00 2.3177618582189716e-01 3.7427678396623981e-01 3.1501279191445863e-01 5.0000000000000000e+00 5.8320000000000005e-01 1 1 0
727 1 1.3590622928524326e+01 1.1400014162093115e+01 1.3400138843728996e+01 728 0.0000000000000000e+00 1.7572589657353280e-01 -4.0591983449899482e-01 -3.1206414922854669e-01 5.0000000000000000e+00 5.8320000000000005e-01 1 1 0
871 1 1.3256583068367890e+01 1.4053205222493878e+01 1.4817914929359304e+01 872 0.0000000000000000e+00 9.9447569563298227e-02 -3.7415293240903347e-01 -3.7835930063588263e-01 5.0000000000000000e+00 5.8320000000000005e-01 1 1 1
678 1 1.3400763967778941e+01 1.4964271145757603e+01 1.1928755647234876e+01 679 0.0000000000000000e+00 3.3401741406914304e-01 2.7333818765117041e-01 -3.2672808077992954e-01 5.0000000000000000e+00 5.8320000000000005e-01 1 2 2
930 1 1.0026289540405394e+01 1.0125104240110250e+01 1.2752219079723583e+01 931 0.0000000000000000e+00 1.3744138040375412e-01 1.3927849722968352e-01 5.0472650194154800e-01 5.0000000000000000e+00 5.8320000000000005e-01 0 1 1
992 1 1.6385156409014961e+01 1.1028853226408920e+01 1.5261229127386382e+01 993 0.0000000000000000e+00 8.0249255600885416e-02 5.3065672373816841e-01 7.0695048107890637e-02 5.0000000000000000e+00 5.8320000000000005e-01 1 1 0
130 1 1.6753485729023563e+01 1.0900238037944188e+01 1.1969409102341389e+01 131 0.0000000000000000e+00 -4.4365223054354957e-01 1.7765683024595888e-01 -2.5424361801369122e-01 5.0000000000000000e+00 5.8320000000000005e-01 0 1 1
374 1 1.7016463537707352e+01 1.4107529160241365e+01 1.2062365700415038e+01 375 0.0000000000000000e+00 -1.6414341621748216e-01 4.0519009901185488e-01 3.1924338282134784e-01 5.0000000000000000e+00 5.8320000000000005e-01 1 1 1
777 1 1.5624091794475062e+01 1.5989117574104108e+01 1.4091720637317666e+01 778 0.0000000000000000e+00 -4.3450789495298386e-01 1.3952093462571119e-01 2.9115773839054110e-01 5.0000000000000000e+00 5.8320000000000005e-01 1 0 -1
348 1 1.1394807810514141e+01 1.4984319965690380e+01 9.3739985175507510e+00 349 0.0000000000000000e+00 -1.8008788372031784e-01 4.6252061559163027e-01 2.1604636351921447e-01 5.0000000000000000e+00 5.8320000000000005e-01 1 0 2
165 1 1.0984267833985870e+01 1.5908178368881462e+01 1.3987931288656524e+01 166 0.0000000000000000e+00 2.4377064072258706e-01 5.8005097964373871e-03 4.8329506764274022e-01 5.0000000000000000e+00 5.8320000000000005e-01 1 0 0
770 1 1.4134736288063644e+01 1.6232738842220414e+01 1.6625462593181989e+01 771 0.0000000000000000e+00 -4.0348836002787913e-01 -7.0367357781748144e-02 3.5395113770240672e-01 5.0000000000000000e+00 5.8320000000000005e-01 -1 0 0
156 1 1.0347698305745723e+01 1.1451838333384822e+01 9.8170358968984353e+00 157 0.0000000000000000e+00 -2.4015692689469029e-01 -7.2771965701583008e-02 4.7964986320484465e-01 5.0000000000000000e+00 5.8320000000000005e-01 0 0 1
322 1 1.3697445137112872e+01 1.1371180636018263e+01 1.7105711340310837e+01 323 0.0000000000000000e+00 5.0428656442160236e-01 1.7050180179320987e-01 9.8267487650423160e-02 5.0000000000000000e+00 5.8320000000000005e-01 1 1 0
3 1 1.5683431176680777e+01 1.3667504887641135e+01 1.6821652533456188e+01 4 0.0000000000000000e+00 7.3853065323685074e-02 5.3251598529209954e-01 -6.3298310804318011e-02 5.0000000000000000e+00 5.8320000000000005e-01 0 0 -1
814 1 1.1001763775277874e+01 1.2060010408950536e+01 1.5216676274493809e+01 815 0.0000000000000000e+00 2.3563039379104131e-01 -2.8931376318523727e-01 3.9218976638035213e-01 5.0000000000000000e+00 5.8320000000000005e-01 1 1 0
686 1 1.4078658445648909e+01 1.1933436583343155e+01 1.0538576160428553e+01 687 0.0000000000000000e+00 -2.1368744076398316e-01 3.5211289822891795e-01 -3.5126942246738596e-01 5.0000000000000000e+00 5.8320000000000005e-01 0 0 1
296 1 1.0838509058531688e+01 1.6980964208713687e+01 1.6840325286599505e+01 297 0.0000000000000000e+00 -2.5002575156407986e-01 4.5251825196566542e-01 1.6046275702715418e-01 5.0000000000000000e+00 5.8320000000000005e-01 0 0 0
124 1 2.3087409886406117e+01 1.0436129474026531e+01 1.5701598479462803e+01 125 0.0000000000000000e+00 4.1199327582255990e-01 -3.4233225283817076e-01 7.8095578900080814e-02 5.0000000000000000e+00 5.8320000000000005e-01 2 1 0
368 1 1.8189241748163418e+01 1.3455343885707371e+01 1.5264062536785278e+01 369 0.0000000000000000e+00 5.0896157655168772e-01 4.0860044267387423e-02 -1.7980053691935299e-01 5.0000000000000000e+00 5.8320000000000005e-01 0 0 0
211 1 2.0387259295539753e+01 1.6061390211113547e+01 1.6228865796396946e+01 212 0.0000000000000000e+00 -2.1234840310463421e-01 -4.9794028756562392e-01 8.6320216376084265e-04 5.0000000000000000e+00 5.8320000000000005e-01 0 0 0
1011 1 2.0392954024005977e+01 1.0839854059757007e+01 1.3846631682186217e+01 1012 0.0000000000000000e+00 2.6975141239739286e-01 -1.0809922110157621e-01 4.5670256886385496e-01 5.0000000000000000e+00 5.8320000000000005e-01 2 0 0
380 1 1.9567033902995043e+01 1.1169763168698083e+01 1.6785613181011087e+01 381 0.0000000000000000e+00 -4.1761946840008835e-01 -1.1738789468217972e-01 3.2379622526415142e-01 5.0000000000000000e+00 5.8320000000000005e-01 0 0 0
237 1 2.1524753659124904e+01 1.3277560884190446e+01 1.5994861225848977e+01 238 0.0000000000000000e+00 -1.1016010479495969e-01 -5.2990138929324981e-01 1.0224105664911469e-02 5.0000000000000000e+00 5.8320000000000005e-01 -1 0 0
1003 1 2.2371785944652693e+01 1.2467204668217590e+01 1.1941437450105703e+01 1004 0.0000000000000000e+00 -4.3143711655784733e-01 2.2290581212734861e-02 -3.2618822395274921e-01 5.0000000000000000e+00 5.8320000000000005e-01 0 0 1
485 1 2.0285128814571181e+01 1.4853023275757451e+01 1.3328614655553842e+01 486 0.0000000000000000e+00 4.0658451750184565e-01 2.1833995261573344e-01 -2.8293661095650136e-01 5.0000000000000000e+00 5.8320000000000005e-01 1 0 1
112 1 1.9604794254711763e+01 1.2502948034683808e+01 1.1010022095173930e+01 113 0.0000000000000000e+00 -5.0400417888388682e-01 -1.7812111489593860e-01 8.5383011166196787e-02 5.0000000000000000e+00 5.8320000000000005e-01 0 0 0
643 1 2.3438471834344334e+01 9.5072814440517259e+00 9.7130850759115095e+00 644 0.0000000000000000e+00 -4.6988446362907593e-01 -2.5211403151051631e-01 9.3164601944783487e-02 5.0000000000000000e+00 5.8320000000000005e-01 0 1 1
469 1 2.2563690645270064e+01 1.5860027530461986e+01 1.1698902680555065e+01 470 0.0000000000000000e+00 4.8743576729228688e-01 2.2784371627332850e-01 -5.9393988070667682e-02 5.0000000000000000e+00 5.8320000000000005e-01 -1 1 0
267 1 2.4325166456610294e+01 1.3064191830088822e+01 1.4135490987785801e+01 268 0.0000000000000000e+00 -2.4289484778615839e-01 -2.1782109082016243e-01 -4.3196009620432951e-01 5.0000000000000000e+00 5.8320000000000005e-01 -1 -1 1
1004 1 2.3579055205074145e+01 1.6006947027010199e+01 1.4887843995467016e+01 1005 0.0000000000000000e+00 -2.6011520592484039e-01 -4.1183812451436025e-01 2.3613979555164383e-01 5.0000000000000000e+00 5.8320000000000005e-01 0 0 0
166 1 2.4408899343029482e+01 1.3517383871656602e+01 9.4545710173023192e+00 167 0.0000000000000000e+00 3.0025074294464771e-01 4.0839070852611076e-01 1.8998851320732099e-01 5.0000000000000000e+00 5.8320000000000005e-01 -1 -1 1
999 1 1.1105993893562406e+01 1.7447418878565784e+01 1.1366447626229190e+01 1000 0.0000000000000000e+00 -2.2090007079392382e-01 6.9190346948413986e-02 4.8933552897004884e-01 5.0000000000000000e+00 5.8320000000000005e-01 0 1 1
494 1 1.3174588453486937e+01 2.0386346135740546e+01 1.0819857004623728e+01 495 0.0000000000000000e+00 -3.4606536318728603e-01 -2.5552770874473313e-01 -3.2859760477781730e-01 5.0000000000000000e+00 5.8320000000000005e-01 1 0 1
204 1 1.0412503400127031e+01 2.2119728111942329e+01 1.2357183510616231e+01 205 0.0000000000000000e+00 9.3306562719426764e-02 2.8509918385489946e-01 4.5060882927296908e-01 5.0000000000000000e+00 5.8320000000000005e-01 0 0 1
66 1 1.3290147970520151e+01 2.2812854445294334e+01 1.3821748499085139e+01 67 0.0000000000000000e+00 -3.0623885452519838e-02 1.8036784275304926e-01 5.0947330149910908e-01 5.0000000000000000e+00 5.8320000000000005e-01 0 1 0
771 1 1.7129610123879701e+01 2.3398159896620228e+01 1.1168355759662948e+01 772 0.0000000000000000e+00 2.6058963377158673e-02 -5.3976520006993334e-01 3.1712639769857887e-02 5.0000000000000000e+00 5.8320000000000005e-01 1 1 0
506 1 1.5554672928368829e+01 2.1192659178538463e+01 1.2262014181083922e+01 507 0.0000000000000000e+00 -4.2837380688772175e-01 -2.7281950486118123e-01 1.8734162255041104e-01 5.0000000000000000e+00 5.8320000000000005e-01 -1 0 1
586 1 1.1910437058919932e+01 1.9501424771141547e+01 1.3634610079083599e+01 587 0.0000000000000000e+00 -1.1320864237808799e-01 3.9379700046950822e-01 -3.5376173847962739e-01 5.0000000000000000e+00 5.8320000000000005e-01 1 0 1
892 1 1.5236020317421957e+01 1.7270968611391247e+01 1.1310458959249811e+01 893 0.0000000000000000e+00 4.8437258260271726e-01 2.1070247991275201e-01 -1.1842363016471916e-01 5.0000000000000000e+00 5.8320000000000005e-01 1 0 0
763 1 1.3116768218945470e+01 2.4985989965518215e+01 1.6021879315120842e+01 764 0.0000000000000000e+00 -6.8857383339956876e-02 1.0565171967649781e-01 5.2643100639017548e-01 5.0000000000000000e+00 5.8320000000000005e-01 0 0 0
824 1 1.5479224724325590e+01 1.8889723740879571e+01 1.4839904190568248e+01 825 0.0000000000000000e+00 3.6053921381043535e-01 -2.9316142128938649e-01 -2.7766714420784444e-01 5.0000000000000000e+00 5.8320000000000005e-01 0 0 0
623 1 1.3666628986988812e+01 2.3386001578265457e+01 1.0862967245619215e+01 624 0.0000000000000000e+00 -4.1903193593165723e-02 -5.0375701231187553e-01 1.9367495246754698e-01 5.0000000000000000e+00 5.8320000000000005e-01 0 0 0
676 1 1.0634530805038207e+01 2.1736684671581518e+01 1.5446768481927490e+01 677 0.0000000000000000e+00 -1.7839959970879785e-01 -2.6025143115078531e-01 4.3985511979253877e-01 5.0000000000000000e+00 5.8320000000000005e-01 0 0 0
847 1 1.5084909469199475e+01 2.2205872699494755e+01 1.6608605280706016e+01 848 0.0000000000000000e+00 4.5224909857283635e-01 5.9631322546460253e-02 -2.9145512898457809e-01 5.0000000000000000e+00 5.8320000000000005e-01 0 0 0
976 1 1.2991152160735824e+01 1.9528484309786101e+01 1.6346449741083241e+01 977 0.0000000000000000e+00 1.2153228118179408e-02 -1.5161323391471415e-01 -5.1952377909796355e-01 5.0000000000000000e+00 5.8320000000000005e-01 1 0 -1
223 1 1.1128325588549734e+01 2.4932988928866745e+01 1.2297244219958412e+01 224 0.0000000000000000e+00 5.6800998678684371e-02 3.9234501221535906e-01 -3.6860716642359781e-01 5.0000000000000000e+00 5.8320000000000005e-01 0 0 0
808 1 2.2574215053961979e+01 2.4016740134109895e+01 9.9182822962942687e+00 809 0.0000000000000000e+00 1.7627399432538143e-01 -4.0989333901183717e-01 3.0650625451742819e-01 5.0000000000000000e+00 5.8320000000000005e-01 0 1 0
665 1 2.4821661633434267e+01 1.7608271258691705e+01 1.1756674851315861e+01 666 0.0000000000000000e+00 4.8315649854173776e-01 1.0210059275931518e-01 2.2174501905360622e-01 5.0000000000000000e+00 5.8320000000000005e-01 -1 -1 0
111 1 2.3487667319178556e+01 2.3811480107453431e+01 1.3092298216941527e+01 112 0.0000000000000000e+00 -3.6011504440978581e-01 -8.6648969176906829e-02 3.9476973773367863e-01 5.0000000000000000e+00 5.8320000000000005e-01 1 0 0
842 1 1.7705810340649073e+01 1.8669391774131533e+01 1.1841121154562746e+01 843 0.0000000000000000e+00 4.1305861173767416e-01 3.1557441043733536e-01 -1.5109067392289144e-01 5.0000000000000000e+00 5.8320000000000005e-01 0 0 -1
376 1 1.9298464916316526e+01 2.0847837766612926e+01 9.5226791563007236e+00 377 0.0000000000000000e+00 3.2795595194796634e-01 3.7840178100209537e-01 -2.0565453901226086e-01 5.0000000000000000e+00 5.8320000000000005e-01 0 0 1
813 1 2.4722304707471796e+01 2.4222742945859178e+01 1.6142940460260110e+01 814 0.0000000000000000e+00 4.1158025200959519e-01 -3.5097839093031469e-01 -2.1243894550798146e-02 5.0000000000000000e+00 5.8320000000000005e-01 1 0 1
393 1 2.2331616213921968e+01 1.8520239676932746e+01 1.6741954525302376e+01 394 0.0000000000000000e+00 2.6564636617545660e-02 -4.1093593451452071e-01 3.5136806571749707e-01 5.0000000000000000e+00 5.8320000000000005e-01 1 0 1
132 1 1.7563076679113017e+01 2.1596951224316349e+01 1.5005234377575949e+01 133 0.0000000000000000e+00 2.4792506744867515e-01 -1.2725407340625525e-01 -4.6408375228194026e-01 5.0000000000000000e+00 5.8320000000000005e-01 0 1 1
603 1 1.9667401374884683e+01 2.0889486241972385e+01 1.2684722589510042e+01 604 0.0000000000000000e+00 2.9552757676122016e-01 2.2372875094999808e-01 -3.9451874273853560e-01 5.0000000000000000e+00 5.8320000000000005e-01 0 0 1
542 1 2.3581814690841846e+01 2.1305865338106230e+01 1.4683485663444721e+01 543 0.0000000000000000e+00 4.4750175241489470e-01 -3.0420310907137255e-01 -1.5367703696675658e-02 5.0000000000000000e+00 5.8320000000000005e-01 1 0 1
920 1 2.0389307002516926e+01 2.3832847143702281e+01 1.2316759252675034e+01 921 0.0000000000000000e+00 -2.8445418566380826e-01 4.2683886748306943e-01 1.7298591261750307e-01 5.0000000000000000e+00 5.8320000000000005e-01 -1 0 0
495 1 2.0913184750649869e+01 2.2425217056653160e+01 1.5974776937769922e+01 496 0.0000000000000000e+00 4.2085119131346482e-01 2.0898933622795643e-01 -2.6877368716642563e-01 5.0000000000000000e+00 5.8320000000000005e-01 -1 0 0
117 1 2.2213158448059826e+01 2.1093505820895995e+01 1.1183818523131595e+01 118 0.0000000000000000e+00 2.8547819794304885e-01 -4.5738031005047758e-01 4.8342932030633050e-02 5.0000000000000000e+00 5.8320000000000005e-01 1 0 1
618 1 2.0774729018754975e+01 1.7742896367339274e+01 1.0187802921923629e+01 619 0.0000000000000000e+00 1.3498264253721509e-01 -2.9582913306912190e-01 4.3278086445826391e-01 5.0000000000000000e+00 5.8320000000000005e-01 0 0 1
382 1 2.2093645375156441e+01 1.8491741542771202e+01 1.3803098625693442e+01 383 0.0000000000000000e+00 2.8123903882531168e-03 1.0110182088781618e-01 5.3179276760169669e-01 5.0000000000000000e+00 5.8320000000000005e-01 0 0 1
391 1 1.8313707793861742e+01 1.7877080981297482e+01 1.4915957631727174e+01 392 0.0000000000000000e+00 3.2408671964642272e-01 -4.2549850382391663e-01 8.3379985562660575e-02 5.0000000000000000e+00 5.8320000000000005e-01 1 0 0
282 1 1.7900195194654263e+01 2.4839725791179479e+01 1.3698231208931620e+01 283 0.0000000000000000e+00 -5.3265428369074852e-01 2.0628574473994573e-02 9.4304373074987569e-02 5.0000000000000000e+00 5.8320000000000005e-01 0 0 1
1016 1 1.2237461806849376e+01 1.0067170179189516e+01 2.4168475763365556e+01 1017 0.0000000000000000e+00 6.6689349450303456e-02 5.0342285283836818e-01 1.8748871782049692e-01 5.0000000000000000e+00 5.8320000000000005e-01 1 1 0
25 1 1.0163091962226307e+01 1.6958566501071786e+01 2.1663607788325486e+01 26 0.0000000000000000e+00 5.1502016724218480e-01 -1.6467690927530423e-01 -2.5930055637526043e-02 5.0000000000000000e+00 5.8320000000000005e-01 1 1 -1
655 1 1.3055625521736051e+01 1.1186009737249584e+01 2.1023621594509194e+01 656 0.0000000000000000e+00 -3.4898469507916169e-01 -2.5789027757053817e-01 3.2362866473026664e-01 5.0000000000000000e+00 5.8320000000000005e-01 -1 0 1
1009 1 1.6541342738578855e+01 1.5666477190601487e+01 2.0237378893116514e+01 1010 0.0000000000000000e+00 3.4991980563985420e-01 -3.8992421404735400e-01 1.3620449265908940e-01 5.0000000000000000e+00 5.8320000000000005e-01 1 0 0
350 1 1.1245382234166897e+01 1.0973905229343501e+01 1.8444026168902436e+01 351 0.0000000000000000e+00 4.4056400435831589e-01 -3.1927028394987587e-02 -3.1291660793513565e-01 5.0000000000000000e+00 5.8320000000000005e-01 0 0 0
829 1 1.4102793128955852e+01 1.5130480990344825e+01 2.2410675190462783e+01 830 0.0000000000000000e+00 -4.9704671195862449e-01 1.5586623441470188e-01 -1.4727031371088137e-01 5.0000000000000000e+00 5.8320000000000005e-01 1 0 0
179 1 1.7144413424522618e+01 1.6567094277572430e+01 1.7181347267181749e+01 180 0.0000000000000000e+00 -3.4767279739362489e-01 3.9342331431932048e-01 1.3182767388713457e-01 5.0000000000000000e+00 5.8320000000000005e-01 0 0 0
886 1 1.6343151749558452e+01 1.2702773028929926e+01 2.3487250426824868e+01 887 0.0000000000000000e+00 9.0789118350416545e-02 4.5297252358200352e-01 -2.8214367788221911e-01 5.0000000000000000e+00 5.8320000000000005e-01 1 -1 1
134 1 1.1992379916862452e+01 1.3963339455392003e+01 2.0570136509064152e+01 135 0.0000000000000000e+00 1.7243957190825172e-02 -2.1195912882790252e-01 -4.9779993023996855e-01 5.0000000000000000e+00 5.8320000000000005e-01 1 1 1
646 1 1.1913508884529609e+01 1.4007197709600364e+01 1.7410932420774103e+01 647 0.0000000000000000e+00 -9.1492218285309443e-02 1.4651663379770277e-01 -5.1303188566971469e-01 5.0000000000000000e+00 5.8320000000000005e-01 0 1 0
453 1 1.5449438086154402e+01 1.2500681360588908e+01 2.0118685935833660e+01 454 0.0000000000000000e+00 -4.5159054508923752e-01 -2.9739672765339387e-01 2.5562409257706104e-02 5.0000000000000000e+00 5.8320000000000005e-01 0 0 0
696 1 1.3086084129640197e+01 1.6888304959583344e+01 1.9190560756636565e+01 697 0.0000000000000000e+00 1.2215972993514324e-01 -7.3854869579273147e-02 5.2216791152042419e-01 5.0000000000000000e+00 5.8320000000000005e-01 1 0 0
955 1 1.0214234506082132e+01 9.7974505759299166e+00 2.1674829423918901e+01 956 0.0000000000000000e+00 -2.4024074824932278e-02 -5.2714275126973542e-01 -1.2075028162526173e-01 5.0000000000000000e+00 5.8320000000000005e-01 0 2 0
835 1 9.5422454858686052e+00 1.1553454456802811e+01 2.3884594280986228e+01 836 0.0000000000000000e+00 -3.0863665016821368e-01 -6.9767806151388473e-02 -4.3921777195118811e-01 5.0000000000000000e+00 5.8320000000000005e-01 0 0 0
852 1 1.1532582533517539e+01 1.5899257459390400e+01 2.4067029217854369e+01 853 0.0000000000000000e+00 -1.7528558227062113e-01 4.0357756035513009e-01 3.1532765867562373e-01 5.0000000000000000e+00 5.8320000000000005e-01 1 0 0
145 1 1.3211331832077123e+01 1.3008404666758761e+01 2.4694105918905176e+01 146 0.0000000000000000e+00 1.7661750818483385e-01 5.0145003007117661e-01 1.0192843785811830e-01 5.0000000000000000e+00 5.8320000000000005e-01 0 1 -1
185 1 2.0828602352985385e+01 1.2797815125378513e+01 2.4102874277231763e+01 186 0.0000000000000000e+00 2.1326486434807018e-01 -3.9499347210197233e-01 -3.0254448240122916e-01 5.0000000000000000e+00 5.8320000000000005e-01 0 0 -1
74 1 2.3968682106042390e+01 1.6390128337848051e+01 1.8222641135033552e+01 75 0.0000000000000000e+00 1.8384257882145588e-01 -1.1785692866561359e-01 4.9532391298804185e-01 5.0000000000000000e+00 5.8320000000000005e-01 1 0 0
465 1 1.7784141201414300e+01 1.7099398877351760e+01 2.3240049760039280e+01 466 0.0000000000000000e+00 1.4826885530640727e-01 -1.6307810003358550e-01 4.9442119375646054e-01 5.0000000000000000e+00 5.8320000000000005e-01 0 0 0
492 1 1.7218517930707787e+01 1.0495914121289994e+01 1.8477951114490814e+01 493 0.0000000000000000e+00 -2.3903133542574456e-01 -2.7580410041190939e-01 3.9978005538115918e-01 5.0000000000000000e+00 5.8320000000000005e-01 1 0 1
233 1 1.9197219110705007e+01 1.4525654635228669e+01 2.2070606780503788e+01 234 0.0000000000000000e+00 3.2918493266961968e-01 3.1577749210533440e-01 -2.9147733047865543e-01 5.0000000000000000e+00 5.8320000000000005e-01 0 0 1
991 1 2.4259530056221354e+01 1.3581875130979389e+01 1.9712587532606946e+01 992 0.0000000000000000e+00 4.0585276993416675e-01 -3.5306205097868870e-01 6.0549727460048039e-02 5.0000000000000000e+00 5.8320000000000005e-01 0 0 1
159 1 2.1482538109074955e+01 1.2783403067268726e+01 1.9260922396392886e+01 160 0.0000000000000000e+00 2.0441213492684376e-01 4.9834476261284572e-01 5.3881736896617578e-02 5.0000000000000000e+00 5.8320000000000005e-01 -1 0 0
570 1 2.1644051205993044e+01 1.0989663214568763e+01 2.2148462691752364e+01 571 0.0000000000000000e+00 1.9822302150342253e-01 -4.8944447650205830e-01 -1.1907607470722116e-01 5.0000000000000000e+00 5.8320000000000005e-01 0 0 0
633 1 2.0373294601606467e+01 1.5974672146182776e+01 1.9992141011527906e+01 634 0.0000000000000000e+00 7.1303453589451875e-03 4.6688014286784585e-01 -2.7387150229763241e-01 5.0000000000000000e+00 5.8320000000000005e-01 0 0 1
482 1 1.8008677857953980e+01 1.3490485462725056e+01 1.8658918433210971e+01 483 0.0000000000000000e+00 -1.2405102945915418e-01 -5.0163580584182965e-01 -1.6125144987733381e-01 5.0000000000000000e+00 5.8320000000000005e-01 0 1 0
634 1 2.4346075802343108e+01 1.3786470873280050e+01 2.3208484758941548e+01 635 0.0000000000000000e+00 -2.5283428497607191e-01 4.0773256183125289e-01 2.5073479607577798e-01 5.0000000000000000e+00 5.8320000000000005e-01 -1 0 0
251 1 2.2267529675081839e+01 1.6332890122667898e+01 2.2984711784114349e+01 252 0.0000000000000000e+00 -1.0504345041460299e-01 2.6955427194390014e-01 -4.5753398278356211e-01 5.0000000000000000e+00 5.8320000000000005e-01 -1 0 0
269 1 2.1624464042396710e+01 9.8394709389539692e+00 1.8784390128190211e+01 270 0.0000000000000000e+00 -4.5415894566400682e-02 5.3832563189866667e-01 3.4320832764297406e-02 5.0000000000000000e+00 5.8320000000000005e-01 0 0 0
719 1 1.8544109468171314e+01 1.0121457593524200e+01 2.4624541093397887e+01 720 0.0000000000000000e+00 -2.0226317151338635e-01 -5.0054690979421057e-01 -3.9621869526978770e-02 5.0000000000000000e+00 5.8320000000000005e-01 0 1 1
331 1 1.8468773639207917e+01 1.1439584924682464e+01 2.1282386012582737e+01 332 0.0000000000000000e+00 2.0101338133001401e-01 3.3754699444721603e-01 3.7241318688511221e-01 5.0000000000000000e+00 5.8320000000000005e-01 -1 0 0
670 1 1.0970809047962101e+01 2.4794139042156207e+01 2.3366754613714299e+01 671 0.0000000000000000e+00 -1.7760067527800324e-01 2.3666946319107166e-01 4.5330092249370868e-01 5.0000000000000000e+00 5.8320000000000005e-01 0 1 0
120 1 1.4287036065061471e+01 2.0660402329999904e+01 2.3746056742796242e+01 121 0.0000000000000000e+00 1.5987191190073080e-01 1.1505564388169573e-01 5.0422423969517116e-01 5.0000000000000000e+00 5.8320000000000005e-01 1 0 0
71 1 1.0497060084743397e+01 2.2335264347688149e+01 2.0767414010190148e+01 72 0.0000000000000000e+00 -5.2518976854427835e-01 -1.2864725712188049e-01 2.5603617936222779e-02 5.0000000000000000e+00 5.8320000000000005e-01 0 1 1
163 1 9.5684824348606199e+00 2.0037187578026192e+01 2.2486685993957281e+01 164 0.0000000000000000e+00 1.1032788044042306e-01 -5.1316072021654313e-01 -1.3238341181720018e-01 5.0000000000000000e+00 5.8320000000000005e-01 0 1 1
578 1 1.2517241795059627e+01 1.8525218883001461e+01 2.2360846793107186e+01 579 0.0000000000000000e+00 4.2741366053664703e-01 2.1411854443927830e-01 2.5398586065737744e-01 5.0000000000000000e+00 5.8320000000000005e-01 0 1 0
682 1 1.2765145121302591e+01 2.4128655541603564e+01 2.1078625851048422e+01 683 0.0000000000000000e+00 -5.2374694973569147e-01 -9.7211413968126395e-02 9.6312855512006121e-02 5.0000000000000000e+00 5.8320000000000005e-01 1 -1 0
642 1 1.4333225422252706e+01 2.4092611771179797e+01 2.3957648036915213e+01 643 0.0000000000000000e+00 2.0112640670795248e-01 2.0959391346273765e-01 4.5678227074189481e-01 5.0000000000000000e+00 5.8320000000000005e-01 0 1 0
364 1 1.1571430064300850e+01 2.1856442581689691e+01 2.4446098080038055e+01 365 0.0000000000000000e+00 1.3068168881045292e-01 1.8692172501412396e-01 -4.9093468916689126e-01 5.0000000000000000e+00 5.8320000000000005e-01 1 0 -1
574 1 1.0809478344723880e+01 1.9594216465306005e+01 1.9569818356925097e+01 575 0.0000000000000000e+00 4.2388900363595206e-01 2.0810681103916856e-01 -2.6465395216324950e-01 5.0000000000000000e+00 5.8320000000000005e-01 0 1 0
609 1 1.7109331066999061e+01 1.9972794812025469e+01 2.3151437263307578e+01 610 0.0000000000000000e+00 -3.0184056651269375e-01 -2.0808517314082997e-01 -3.9827342834571178e-01 5.0000000000000000e+00 5.8320000000000005e-01 -1 0 0
259 1 1.5552441027750298e+01 2.2597869801673198e+01 2.1465934551942421e+01 260 0.0000000000000000e+00 -5.2045748341260711e-01 -1.4222678975283884e-01 4.3959333894152589e-02 5.0000000000000000e+00 5.8320000000000005e-01 0 0 0
49 1 1.5300049728109613e+01 1.8497720064246529e+01 2.0800613494173746e+01 50 0.0000000000000000e+00 4.6878484404509491e-01 -1.8718598154865618e-01 -1.9554759754413309e-01 5.0000000000000000e+00 5.8320000000000005e-01 -1 0 1
434 1 1.5397572167424855e+01 1.9045766492733776e+01 1.7756462363120839e+01 435 0.0000000000000000e+00 -2.7432893744876519e-01 3.5320025371671770e-01 -3.0500213466905080e-01 5.0000000000000000e+00 5.8320000000000005e-01 1 0 1
809 1 1.2364425314455850e+01 2.2728983973685068e+01 1.7934084621084946e+01 810 0.0000000000000000e+00 2.7059179392218957e-01 -4.0795103369614533e-01 2.3106452187261001e-01 5.0000000000000000e+00 5.8320000000000005e-01 1 -1 1
1017 1 1.3566323826037738e+01 2.0597005686332487e+01 2.0002290173939059e+01 1018 0.0000000000000000e+00 3.6196545487517912e-01 -3.5874743530651215e-01 1.8252355611812010e-01 5.0000000000000000e+00 5.8320000000000005e-01 0 -1 0
397 1 2.3353502957625402e+01 2.4208984042073880e+01 1.9513782190104166e+01 398 0.0000000000000000e+00 -4.8710076330470198e-01 1.6584062789871901e-01 -1.6812074537705116e-01 5.0000000000000000e+00 5.8320000000000005e-01 2 0 -1
408 1 2.4211112641144872e+01 2.1049873839130264e+01 1.7989082011877723e+01 409 0.0000000000000000e+00 -5.1585485374906170e-01 8.4769129337795776e-02 1.4049067397819054e-01 5.0000000000000000e+00 5.8320000000000005e-01 0 0 0
747 1 2.2360654755824196e+01 1.8357457652590817e+01 1.9929779929480524e+01 748 0.0000000000000000e+00 2.1757429766004057e-02 3.9665251354750608e-01 3.6773776015854398e-01 5.0000000000000000e+00 5.8320000000000005e-01 -1 0 -1
705 1 1.8352191278581191e+01 2.3462292332930339e+01 1.7558270951172162e+01 706 0.0000000000000000e+00 3.1559628339651469e-01 -3.7306094657813127e-01 -2.3293667689854133e-01 5.0000000000000000e+00 5.8320000000000005e-01 0 0 -1
371 1 2.0624518445172342e+01 2.4729542905156755e+01 1.9116503569358425e+01 372 0.0000000000000000e+00 -4.9775847579058274e-01 1.4809501216010820e-01 -1.5276495066582929e-01 5.0000000000000000e+00 5.8320000000000005e-01 1 0 -1
292 1 2.2750801239112750e+01 2.1429083101351345e+01 2.3012684668072161e+01 293 0.0000000000000000e+00 -4.0234178344656385e-01 5.4085652026416827e-03 3.6211742351823822e-01 5.0000000000000000e+00 5.8320000000000005e-01 1 0 0
741 1 2.0334391319650891e+01 1.8835749092990831e+01 2.2198047845654237e+01 742 0.0000000000000000e+00 -3.9043429068574681e-01 1.8723205015051592e-01 3.2487215755301740e-01 5.0000000000000000e+00 5.8320000000000005e-01 1 0 1
531 1 1.7874469276851094e+01 1.9386865095797262e+01 1.9589227599292336e+01 532 0.0000000000000000e+00 2.8421949742523206e-01 -9.3210702583154434e-02 -4.5117542298678376e-01 5.0000000000000000e+00 5.8320000000000005e-01 0 0 -1
300 1 2.0027467146794429e+01 2.1690758270374801e+01 2.3637841127638509e+01 301 0.0000000000000000e+00 -3.6103481843660751e-01 2.6075057765237714e-01 3.0771994399193153e-01 5.0000000000000000e+00 5.8320000000000005e-01 0 0 -1
448 1 2.1990692005609279e+01 2.4313404552031116e+01 2.3441630754351504e+01 449 0.0000000000000000e+00 9.9049391831306385e-02 3.6370856070073382e-01 -3.8851318761510401e-01 5.0000000000000000e+00 5.8320000000000005e-01 0 0 -1
830 1 1.8622870790382660e+01 2.2380364839482365e+01 2.0522030388257193e+01 831 0.0000000000000000e+00 -5.2685669955651859e-01 9.9089337661136215e-02 7.5050946658184778e-02 5.0000000000000000e+00 5.8320000000000005e-01 0 1 1
332 1 1.9576517769486472e+01 1.9935232381165839e+01 1.7232306458749196e+01 333 0.0000000000000000e+00 2.5838971875756456e-01 3.4834736885806383e-01 -3.2391191078756393e-01 5.0000000000000000e+00 5.8320000000000005e-01 0 0 0
369 1 2.1555981002077175e+01 2.1714908990471937e+01 2.0008733000005925e+01 370 0.0000000000000000e+00 -3.9634241564421246e-01 2.1202219216318652e-01 3.0165470954657275e-01 5.0000000000000000e+00 5.8320000000000005e-01 0 0 0
160 1 1.7960971717257674e+01 2.3909889030812231e+01 2.4649577410991615e+01 161 0.0000000000000000e+00 -3.3576053346355456e-01 2.9120919251681859e-01 3.0902651562927685e-01 5.0000000000000000e+00 5.8320000000000005e-01 0 0 0
241 1 1.3173985828787426e+01 1.4638177853673740e+01 3.0060840896470616e+01 242 0.0000000000000000e+00 -5.2370866267098737e-01 -1.3576200123482263e-01 -1.8182369594799217e-02 5.0000000000000000e+00 5.8320000000000005e-01 1 0 -1
178 1 1.5412538335974002e+01 1.2806107840948069e+01 2.7579876095449819e+01 179 0.0000000000000000e+00 2.0170556460758554e-01 -5.0231320338783514e-01 4.8675053761166095e-03 5.0000000000000000e+00 5.8320000000000005e-01 0 0 0
796 1 1.3840442884839991e+01 9.9329653498962003e+00 2.8061977958946947e+01 797 0.0000000000000000e+00 4.8786125353844251e-01 2.0586945071469206e-01 1.1242905611242367e-01 5.0000000000000000e+00 5.8320000000000005e-01 1 -1 -1
538 1 1.6280042876382385e+01 1.4689079238155870e+01 3.0220472105494679e+01 539 0.0000000000000000e+00 -5.1480663003343163e-01 1.2102295330818778e-01 1.1558487594052137e-01 5.0000000000000000e+00 5.8320000000000005e-01 -1 0 -1
621 1 1.1647971523968465e+01 1.6147415895135623e+01 2.7577935107214373e+01 622 0.0000000000000000e+00 -3.2760952098230822e-01 1.4447059050908559e-01 4.0599779622517490e-01 5.0000000000000000e+00 5.8320000000000005e-01 1 1 0
9 1 1.5405460793345744e+01 1.1725425666480437e+01 3.0499831718803520e+01 10 0.0000000000000000e+00 3.0375609158331981e-02 2.0399375205684220e-01 5.0049556930109962e-01 5.0000000000000000e+00 5.8320000000000005e-01 1 0 0
772 1 1.0959719890164081e+01 1.1937920338549562e+01 2.9099872333086552e+01 773 0.0000000000000000e+00 -3.8880499719486827e-01 2.7439863488492061e-01 -2.5800994850894882e-01 5.0000000000000000e+00 5.8320000000000005e-01 1 0 1