Cholesterol, SLipid parameterization, converted from Gromax, manually modified

74 atoms
77 bonds
157 angles
291 dihedrals
0 impropers

10 atom types
16 bond types
43 angle types
22 dihedral types
0 improper types

        -200.00000       200.00000 xlo xhi
        -200.00000       200.00000 ylo yhi
        -200.00000       200.00000 zlo zhi

Masses

1   12.01100 # CTL1
2   15.99940 # OHL
3    1.00800 # HOL
4    1.00800 # HAL1
5   12.01100 # CTL2
6    1.00800 # HAL2
7   12.01100 # CEL1
8    1.00800 # HEL1
9   12.01100 # CTL3
10   1.00800 # HAL3

PairIJ Coeffs

1  1    0.020           4.054    0.0100000000    3.3854151289 # CTL1 - CTL1
1  2    0.055           3.604    0.0390000000    3.2695982956 # CTL1 - OHL
1  3    0.030           2.227    0.0214476106    1.8927143267 # CTL1 - HOL
1  4    0.021           3.203    0.0148323970    2.8686938724 # CTL1 - HAL1
1  5    0.033           3.817    0.0100000000    3.3854151289 # CTL1 - CTL2
1  6    0.023           3.227    0.0167332005    2.8865118468 # CTL1 - HAL2
1  7    0.032           3.777    0.0260768096    3.5546858854 # CTL1 - CEL1
1  8    0.022           3.027    0.0176068169    2.8063309621 # CTL1 - HEL1
1  9    0.040           3.777    0.0100000000    3.3854151289 # CTL1 - CTL3
1 10    0.021           3.127    0.0154919334    2.8865118468 # CTL1 - HAL3
2  2    0.152           3.154    0.0760500000    3.1537814622 # OHL - OHL
2  3    0.084           1.777    0.0418228406    1.7768974933 # OHL - HOL
2  4    0.058           2.753    0.0289231741    2.7528770391 # OHL - HAL1
2  5    0.091           3.367    0.0390000000    3.2695982956 # OHL - CTL2
2  6    0.064           2.777    0.0319041945    2.7768907311 # OHL - HAL2
2  7    0.089           3.327    0.0447146786    3.3268907311 # OHL - CEL1
2  8    0.060           2.577    0.0301466302    2.5768907311 # OHL - HEL1
2  9    0.111           3.327    0.0390000000    3.2695982956 # OHL - CTL3
2 10    0.059           2.677    0.0293833005    2.6768907311 # OHL - HAL3
3  3    0.046           0.400    0.0230000000    0.4000135244 # HOL - HOL
3  4    0.032           1.376    0.0159059737    1.3759930702 # HOL - HAL1
3  5    0.050           1.990    0.0214476106    1.8927143267 # HOL - CTL2
3  6    0.035           1.400    0.0175453523    1.4000067622 # HOL - HAL2
3  7    0.049           1.950    0.0245903337    1.9500067622 # HOL - CEL1
3  8    0.033           1.200    0.0165787996    1.2000067622 # HOL - HEL1
3  9    0.061           1.950    0.0214476106    1.8927143267 # HOL - CTL3
3 10    0.032           1.300    0.0161590150    1.3000067622 # HOL - HAL3
4  4    0.022           2.352    0.0110000000    2.3519726159 # HAL1 - HAL1
4  5    0.035           2.966    0.0148323970    2.8686938724 # HAL1 - CTL2
4  6    0.024           2.376    0.0121337353    2.3759863079 # HAL1 - HAL2
4  7    0.034           2.926    0.0170057914    2.9259863079 # HAL1 - CEL1
4  8    0.023           2.176    0.0114653022    2.1759863079 # HAL1 - HEL1
4  9    0.042           2.926    0.0211409727    2.9259863079 # HAL1 - CTL3
4 10    0.022           2.276    0.0111749943    2.2759863079 # HAL1 - HAL3
5  5    0.054           3.580    0.0195602294    3.2100000000 # CTL2 - CTL2
5  6    0.038           2.990    0.0047829137    2.6865118468 # CTL2 - HAL2
5  7    0.054           3.540    0.0260768096    3.5546858854 # CTL2 - CEL1
5  8    0.036           2.790    0.0176068169    2.8063309621 # CTL2 - HEL1
5  9    0.067           3.540    0.0243403442    3.2500000000 # CTL2 - CTL3
5 10    0.035           2.890    0.0154919334    2.8865118468 # CTL2 - HAL3
6  6    0.027           2.400    0.0133843212    2.4000000000 # HAL2 - HAL2
6  7    0.038           2.950    0.0187585247    2.9500000000 # HAL2 - CEL1
6  8    0.025           2.200    0.0126469948    2.2000000000 # HAL2 - HEL1
6  9    0.047           2.950    0.0047829137    2.7865118468 # HAL2 - CTL3
6 10    0.025           2.300    0.0123267657    2.3000000000 # HAL2 - HAL3
7  7    0.053           3.500    0.0262906310    3.5000000000 # CEL1 - CEL1
7  8    0.035           2.750    0.0177251398    2.7500000000 # CEL1 - HEL1
7  9    0.065           3.500    0.0260768096    3.5546858854 # CEL1 - CTL3
7 10    0.035           2.850    0.0172763292    2.8500000000 # CEL1 - HAL3
8  8    0.024           2.000    0.0119502868    2.0000000000 # HEL1 - HEL1
8  9    0.044           2.750    0.0176068169    2.8063309621 # HEL1 - CTL3
8 10    0.023           2.100    0.0116476988    2.1000000000 # HEL1 - HAL3
9  9    0.081           3.500    0.0100000000    3.3854151289 # CTL3 - CTL3
9 10    0.043           2.850    0.0214772954    2.8500000000 # CTL3 - HAL3
10 10   0.023           2.200    0.0113527725    2.2000000000 # HAL3 - HAL3

Bond Coeffs

1   428.0000   1.4200 # CTL1 OHL
2   309.0000   1.1110 # CTL1 HAL1
3   222.5000   1.5380 # CTL1 CTL2
4   545.0000   0.9600 # OHL HOL
5   309.0000   1.1110 # CTL2 HAL2
6   365.0000   1.5020 # CTL2 CEL1
7   440.0000   1.3400 # CEL1 CEL1
8   365.0000   1.5020 # CEL1 CTL1
9   360.5000   1.1000 # CEL1 HEL1
10  365.0000   1.5020 # CEL1 CTL2
11  222.5000   1.5380 # CTL2 CTL1
12  222.5000   1.5000 # CTL1 CTL1
13  222.5000   1.5300 # CTL2 CTL2
14  222.5000   1.5380 # CTL1 CTL3
15  322.0000   1.1110 # CTL3 HAL3
16  222.5000   1.5280 # CTL2 CTL3

Angle Coeffs

1  charmm  45.9000 108.8900   0.0000   0.0000 # OHL CTL1 HAL1
2  charmm  75.7000 110.1000   0.0000   0.0000 # OHL CTL1 CTL2
3  charmm  34.5000 110.1000  22.5300   2.1790 # HAL1 CTL1 CTL2
4  charmm  58.3500 113.5000  11.1600   2.5610 # CTL2 CTL1 CTL2
5  charmm  57.5000 106.0000   0.0000   0.0000 # CTL1 OHL HOL
6  charmm  26.5000 110.1000  22.5300   2.1790 # CTL1 CTL2 HAL2
7  charmm  32.0000 112.2000   0.0000   0.0000 # CTL1 CTL2 CEL1
8  charmm  35.5000 109.0000   5.4000   1.8020 # HAL2 CTL2 HAL2
9  charmm  45.0000 111.5000   0.0000   0.0000 # HAL2 CTL2 CEL1
10 charmm  48.0000 123.5000   0.0000   0.0000 # CTL2 CEL1 CEL1
11 charmm  58.3500 113.5000  11.1600   2.5610 # CTL2 CEL1 CTL1
12 charmm  48.0000 123.5000   0.0000   0.0000 # CEL1 CEL1 CTL1
13 charmm  52.0000 119.5000   0.0000   0.0000 # CEL1 CEL1 HEL1
14 charmm  48.0000 123.5000   0.0000   0.0000 # CEL1 CEL1 CTL2
15 charmm  40.0000 116.0000   0.0000   0.0000 # HEL1 CEL1 CTL2
16 charmm  45.0000 111.5000   0.0000   0.0000 # CEL1 CTL2 HAL2
17 charmm  32.0000 112.2000   0.0000   0.0000 # CEL1 CTL2 CTL1
18 charmm  26.5000 110.1000  22.5300   2.1790 # HAL2 CTL2 CTL1
19 charmm  34.5000 110.1000  22.5300   2.1790 # CTL2 CTL1 HAL1
20 charmm  58.3500 113.5000  11.1600   2.5610 # CTL2 CTL1 CTL1
21 charmm  34.5000 110.1000  22.5300   2.1790 # HAL1 CTL1 CTL1
22 charmm  53.3500 111.0000   8.0000   2.5610 # CTL1 CTL1 CTL1
23 charmm  34.5000 110.1000  22.5300   2.1790 # CTL1 CTL1 HAL1
24 charmm  58.3500 113.5000  11.1600   2.5610 # CTL1 CTL1 CTL2
25 charmm  58.3500 113.5000  11.1600   2.5610 # CTL1 CTL2 CTL2
26 charmm  26.5000 110.1000  22.5300   2.1790 # HAL2 CTL2 CTL2
27 charmm  26.5000 110.1000  22.5300   2.1790 # CTL2 CTL2 HAL2
28 charmm  58.3500 113.5000  11.1600   2.5610 # CTL2 CTL2 CTL1
29 charmm  53.3500 108.5000   8.0000   2.5610 # CTL1 CTL1 CTL3
30 charmm  58.3500 113.5000  11.1600   2.5610 # CTL3 CTL1 CTL2
31 charmm  33.4300 110.1000  22.5300   2.1790 # CTL1 CTL3 HAL3
32 charmm  35.5000 108.4000   5.4000   1.8020 # HAL3 CTL3 HAL3
33 charmm  32.0000 112.2000   0.0000   0.0000 # CEL1 CTL1 CTL1
34 charmm  32.0000 112.2000   0.0000   0.0000 # CEL1 CTL1 CTL3
35 charmm  32.0000 112.2000   0.0000   0.0000 # CEL1 CTL1 CTL2
36 charmm  58.3500 113.5000  11.1600   2.5610 # CTL1 CTL2 CTL3
37 charmm  34.6000 110.1000  22.5300   2.1790 # HAL2 CTL2 CTL3
38 charmm  58.0000 115.0000   8.0000   2.5610 # CTL3 CTL2 CTL2
39 charmm  34.6000 110.1000  22.5300   2.1790 # CTL2 CTL3 HAL3
40 charmm  58.3500 113.6000  11.1600   2.5610 # CTL2 CTL2 CTL2
41 charmm  58.3500 113.5000  11.1600   2.5610 # CTL2 CTL1 CTL3
42 charmm  34.5000 110.1000  22.5300   2.1790 # HAL1 CTL1 CTL3
43 charmm  58.3500 113.5000  11.1600   2.5610 # CTL3 CTL1 CTL3

Dihedral Coeffs

1         0.1400    3    0    0.0000 # charmm potential
2         0.2000    3    0    0.0000
3         0.1474    1  180    0.0000
4         0.0667    2  180    0.0000
5         0.0212    3  180    0.0000
6         0.3000    3  180    0.0000
7         0.4500    1  180    0.0000
8         8.5000    2  180    0.0000
9         0.0144    2    0    0.0000
10        0.0487    3  180    0.0000
11        0.1324    4    0    0.0000
12        0.0961    5    0    0.0000
13       -0.0371    2    0    0.0000
14       -0.0221    3  180    0.0000
15        0.0825    4    0    0.0000
16        0.0663    5    0    0.0000
17        0.1900    3    0    0.0000
18        0.1600    3    0    0.0000
19       -0.0200    2    0    0.0000
20        0.0636    3  180    0.0000
21       -0.0827    4    0    0.0000
22        0.0957    5    0    0.0000

Atoms

     1    1  1  0.23470     55.14000      3.36000     26.89000  # CHL1 C3
     2    1  2 -0.62780     55.90000      2.83000     25.81000  # CHL1 O3
     3    1  3  0.37680     56.70000      3.33000     25.64000  # CHL1 H3'
     4    1  4  0.09540     54.61000      4.25000     26.47000  # CHL1 H3
     5    1  5 -0.22350     56.10000      3.56000     28.08000  # CHL1 C4
     6    1  6  0.09260     56.75000      2.68000     28.23000  # CHL1 H4A
     7    1  6  0.09260     56.82000      4.38000     27.86000  # CHL1 H4B
     8    1  7 -0.11360     55.32000      3.99000     29.29000  # CHL1 C5
     9    1  7 -0.20750     55.66000      5.02000     30.08000  # CHL1 C6
    10    1  8  0.11370     56.57000      5.59000     29.83000  # CHL1 H6
    11    1  5 -0.02600     55.02000      5.48000     31.36000  # CHL1 C7
    12    1  6  0.03530     55.77000      5.66000     32.15000  # CHL1 H7A
    13    1  6  0.03530     54.44000      6.43000     31.28000  # CHL1 H7B
    14    1  1  0.00270     54.09000      4.38000     31.89000  # CHL1 C8
    15    1  4  0.05730     54.75000      3.56000     32.24000  # CHL1 H8
    16    1  1  0.01560     53.25000      4.98000     32.98000  # CHL1 C14
    17    1  4  0.01440     52.57000      5.68000     32.44000  # CHL1 H14
    18    1  5 -0.09510     54.02000      5.68000     34.11000  # CHL1 C15
    19    1  6  0.02110     54.92000      5.09000     34.35000  # CHL1 H15A
    20    1  6  0.02110     54.36000      6.70000     33.81000  # CHL1 H15B
    21    1  5 -0.07630     52.95000      5.61000     35.21000  # CHL1 C16
    22    1  6  0.02750     53.29000      5.33000     36.23000  # CHL1 H16A
    23    1  6  0.02750     52.52000      6.62000     35.37000  # CHL1 H16B
    24    1  1  0.03750     51.75000      4.79000     34.71000  # CHL1 C17
    25    1  4  0.00890     50.99000      5.46000     34.27000  # CHL1 H17
    26    1  1  0.08560     52.31000      3.98000     33.58000  # CHL1 C13
    27    1  9 -0.08640     53.14000      2.80000     34.11000  # CHL1 C18
    28    1 10  0.01290     53.92000      3.24000     34.76000  # CHL1 H18A
    29    1 10  0.01290     52.58000      2.12000     34.79000  # CHL1 H18B
    30    1 10  0.01290     53.59000      2.16000     33.32000  # CHL1 H18C
    31    1  5 -0.05290     51.36000      3.56000     32.44000  # CHL1 C12
    32    1  6  0.00100     50.70000      2.73000     32.80000  # CHL1 H12A
    33    1  6  0.00100     50.79000      4.41000     32.02000  # CHL1 H12B
    34    1  5 -0.06320     52.10000      3.01000     31.23000  # CHL1 C11
    35    1  6  0.02850     52.53000      2.02000     31.51000  # CHL1 H11A
    36    1  6  0.02850     51.38000      2.86000     30.39000  # CHL1 H11B
    37    1  1  0.03220     53.27000      3.88000     30.74000  # CHL1 C9
    38    1  4  0.02210     52.74000      4.72000     30.24000  # CHL1 H9
    39    1  1  0.05410     54.06000      3.24000     29.63000  # CHL1 C10
    40    1  9 -0.05320     54.49000      1.86000     30.15000  # CHL1 C19
    41    1 10  0.01730     54.72000      1.84000     31.23000  # CHL1 H19A
    42    1 10  0.01730     53.66000      1.13000     30.02000  # CHL1 H19B
    43    1 10  0.01730     55.31000      1.56000     29.47000  # CHL1 H19C
    44    1  5 -0.00870     53.28000      3.09000     28.32000  # CHL1 C1
    45    1  6  0.01080     52.36000      2.48000     28.46000  # CHL1 H1A
    46    1  6  0.01080     52.94000      4.08000     27.94000  # CHL1 H1B
    47    1  5 -0.11370     54.04000      2.35000     27.22000  # CHL1 C2
    48    1  6  0.04010     53.42000      2.09000     26.33000  # CHL1 H2A
    49    1  6  0.04010     54.42000      1.37000     27.59000  # CHL1 H2B
    50    1  5  0.05520     51.10000      4.01000     35.86000  # CHL1 C20
    51    1  6  0.01920     51.80000      3.33000     36.40000  # CHL1 H20
    52    1  9 -0.21800     49.92000      3.12000     35.45000  # CHL1 C21
    53    1 10  0.05460     49.30000      3.74000     34.77000  # CHL1 H21A
    54    1 10  0.05460     49.38000      2.87000     36.39000  # CHL1 H21B
    55    1 10  0.05460     50.37000      2.24000     34.93000  # CHL1 H21C
    56    1  5 -0.02680     50.62000      4.88000     37.03000  # CHL1 C22
    57    1  6 -0.00070     50.14000      4.25000     37.80000  # CHL1 H22A
    58    1  6 -0.00070     51.49000      5.35000     37.54000  # CHL1 H22B
    59    1  5 -0.00500     49.61000      5.96000     36.66000  # CHL1 C23
    60    1  6  0.00310     49.99000      6.65000     35.87000  # CHL1 H23A
    61    1  6  0.00310     48.69000      5.46000     36.27000  # CHL1 H23B
    62    1  5 -0.09100     49.25000      6.74000     37.93000  # CHL1 C24
    63    1  6  0.02790     48.78000      6.00000     38.62000  # CHL1 H24A
    64    1  6  0.02790     50.23000      6.99000     38.38000  # CHL1 H24B
    65    1  1  0.20150     48.51000      8.08000     37.78000  # CHL1 C25
    66    1  4 -0.00390     49.06000      8.76000     37.11000  # CHL1 H25
    67    1  9 -0.23380     47.07000      7.92000     37.25000  # CHL1 C26
    68    1 10  0.05075     46.90000      7.07000     36.56000  # CHL1 H26A
    69    1 10  0.05075     46.32000      7.72000     38.04000  # CHL1 H26B
    70    1 10  0.05075     46.82000      8.90000     36.81000  # CHL1 H26C
    71    1  9 -0.23380     48.46000      8.86000     39.10000  # CHL1 C27
    72    1 10  0.05075     48.23000      9.93000     38.90000  # CHL1 H27A
    73    1 10  0.05075     47.70000      8.41000     39.78000  # CHL1 H27B
    74    1 10  0.05075     49.46000      8.72000     39.56000  # CHL1 H27C

Bonds

     1  1      1      2  # C3 O3
     2  2      1      4  # C3 H3
     3  3      1      5  # C3 C4
     4  3      1     47  # C3 C2
     5  4      2      3  # O3 H3'
     6  5      5      6  # C4 H4A
     7  5      5      7  # C4 H4B
     8  6      5      8  # C4 C5
     9  7      8      9  # C5 C6
    10  8      8     39  # C5 C10
    11  9      9     10  # C6 H6
    12 10      9     11  # C6 C7
    13  5     11     12  # C7 H7A
    14  5     11     13  # C7 H7B
    15 11     11     14  # C7 C8
    16  2     14     15  # C8 H8
    17 12     14     16  # C8 C14
    18 12     14     37  # C8 C9
    19  2     16     17  # C14 H14
    20  3     16     18  # C14 C15
    21 12     16     26  # C14 C13
    22  5     18     19  # C15 H15A
    23  5     18     20  # C15 H15B
    24 13     18     21  # C15 C16
    25  5     21     22  # C16 H16A
    26  5     21     23  # C16 H16B
    27 11     21     24  # C16 C17
    28  2     24     25  # C17 H17
    29 12     24     26  # C17 C13
    30  3     24     50  # C17 C20
    31 14     26     27  # C13 C18
    32  3     26     31  # C13 C12
    33 15     27     28  # C18 H18A
    34 15     27     29  # C18 H18B
    35 15     27     30  # C18 H18C
    36  5     31     32  # C12 H12A
    37  5     31     33  # C12 H12B
    38 13     31     34  # C12 C11
    39  5     34     35  # C11 H11A
    40  5     34     36  # C11 H11B
    41 11     34     37  # C11 C9
    42  2     37     38  # C9 H9
    43 12     37     39  # C9 C10
    44 14     39     40  # C10 C19
    45  3     39     44  # C10 C1
    46 15     40     41  # C19 H19A
    47 15     40     42  # C19 H19B
    48 15     40     43  # C19 H19C
    49  5     44     45  # C1 H1A
    50  5     44     46  # C1 H1B
    51 13     44     47  # C1 C2
    52  5     47     48  # C2 H2A
    53  5     47     49  # C2 H2B
    54  5     50     51  # C20 H20
    55 16     50     52  # C20 C21
    56 13     50     56  # C20 C22
    57 15     52     53  # C21 H21A
    58 15     52     54  # C21 H21B
    59 15     52     55  # C21 H21C
    60  5     56     57  # C22 H22A
    61  5     56     58  # C22 H22B
    62 13     56     59  # C22 C23
    63  5     59     60  # C23 H23A
    64  5     59     61  # C23 H23B
    65 13     59     62  # C23 C24
    66  5     62     63  # C24 H24A
    67  5     62     64  # C24 H24B
    68 11     62     65  # C24 C25
    69  2     65     66  # C25 H25
    70 14     65     67  # C25 C26
    71 14     65     71  # C25 C27
    72 15     67     68  # C26 H26A
    73 15     67     69  # C26 H26B
    74 15     67     70  # C26 H26C
    75 15     71     72  # C27 H27A
    76 15     71     73  # C27 H27B
    77 15     71     74  # C27 H27C

Angles

     1  1      2      1      4  # O3 C3 H3
     2  2      2      1      5  # O3 C3 C4
     3  2      2      1     47  # O3 C3 C2
     4  3      4      1      5  # H3 C3 C4
     5  3      4      1     47  # H3 C3 C2
     6  4      5      1     47  # C4 C3 C2
     7  5      1      2      3  # C3 O3 H3'
     8  6      1      5      6  # C3 C4 H4A
     9  6      1      5      7  # C3 C4 H4B
    10  7      1      5      8  # C3 C4 C5
    11  8      6      5      7  # H4A C4 H4B
    12  9      6      5      8  # H4A C4 C5
    13  9      7      5      8  # H4B C4 C5
    14 10      5      8      9  # C4 C5 C6
    15 11      5      8     39  # C4 C5 C10
    16 12      9      8     39  # C6 C5 C10
    17 13      8      9     10  # C5 C6 H6
    18 14      8      9     11  # C5 C6 C7
    19 15     10      9     11  # H6 C6 C7
    20 16      9     11     12  # C6 C7 H7A
    21 16      9     11     13  # C6 C7 H7B
    22 17      9     11     14  # C6 C7 C8
    23  8     12     11     13  # H7A C7 H7B
    24 18     12     11     14  # H7A C7 C8
    25 18     13     11     14  # H7B C7 C8
    26 19     11     14     15  # C7 C8 H8
    27 20     11     14     16  # C7 C8 C14
    28 20     11     14     37  # C7 C8 C9
    29 21     15     14     16  # H8 C8 C14
    30 21     15     14     37  # H8 C8 C9
    31 22     16     14     37  # C14 C8 C9
    32 23     14     16     17  # C8 C14 H14
    33 24     14     16     18  # C8 C14 C15
    34 22     14     16     26  # C8 C14 C13
    35  3     17     16     18  # H14 C14 C15
    36 21     17     16     26  # H14 C14 C13
    37 20     18     16     26  # C15 C14 C13
    38  6     16     18     19  # C14 C15 H15A
    39  6     16     18     20  # C14 C15 H15B
    40 25     16     18     21  # C14 C15 C16
    41  8     19     18     20  # H15A C15 H15B
    42 26     19     18     21  # H15A C15 C16
    43 26     20     18     21  # H15B C15 C16
    44 27     18     21     22  # C15 C16 H16A
    45 27     18     21     23  # C15 C16 H16B
    46 28     18     21     24  # C15 C16 C17
    47  8     22     21     23  # H16A C16 H16B
    48 18     22     21     24  # H16A C16 C17
    49 18     23     21     24  # H16B C16 C17
    50 19     21     24     25  # C16 C17 H17
    51 20     21     24     26  # C16 C17 C13
    52  4     21     24     50  # C16 C17 C20
    53 21     25     24     26  # H17 C17 C13
    54  3     25     24     50  # H17 C17 C20
    55 24     26     24     50  # C13 C17 C20
    56 22     16     26     24  # C14 C13 C17
    57 29     16     26     27  # C14 C13 C18
    58 24     16     26     31  # C14 C13 C12
    59 29     24     26     27  # C17 C13 C18
    60 24     24     26     31  # C17 C13 C12
    61 30     27     26     31  # C18 C13 C12
    62 31     26     27     28  # C13 C18 H18A
    63 31     26     27     29  # C13 C18 H18B
    64 31     26     27     30  # C13 C18 H18C
    65 32     28     27     29  # H18A C18 H18B
    66 32     28     27     30  # H18A C18 H18C
    67 32     29     27     30  # H18B C18 H18C
    68  6     26     31     32  # C13 C12 H12A
    69  6     26     31     33  # C13 C12 H12B
    70 25     26     31     34  # C13 C12 C11
    71  8     32     31     33  # H12A C12 H12B
    72 26     32     31     34  # H12A C12 C11
    73 26     33     31     34  # H12B C12 C11
    74 27     31     34     35  # C12 C11 H11A
    75 27     31     34     36  # C12 C11 H11B
    76 28     31     34     37  # C12 C11 C9
    77  8     35     34     36  # H11A C11 H11B
    78 18     35     34     37  # H11A C11 C9
    79 18     36     34     37  # H11B C11 C9
    80 24     14     37     34  # C8 C9 C11
    81 23     14     37     38  # C8 C9 H9
    82 22     14     37     39  # C8 C9 C10
    83 19     34     37     38  # C11 C9 H9
    84 20     34     37     39  # C11 C9 C10
    85 21     38     37     39  # H9 C9 C10
    86 33      8     39     37  # C5 C10 C9
    87 34      8     39     40  # C5 C10 C19
    88 35      8     39     44  # C5 C10 C1
    89 29     37     39     40  # C9 C10 C19
    90 24     37     39     44  # C9 C10 C1
    91 30     40     39     44  # C19 C10 C1
    92 31     39     40     41  # C10 C19 H19A
    93 31     39     40     42  # C10 C19 H19B
    94 31     39     40     43  # C10 C19 H19C
    95 32     41     40     42  # H19A C19 H19B
    96 32     41     40     43  # H19A C19 H19C
    97 32     42     40     43  # H19B C19 H19C
    98  6     39     44     45  # C10 C1 H1A
    99  6     39     44     46  # C10 C1 H1B
   100 25     39     44     47  # C10 C1 C2
   101  8     45     44     46  # H1A C1 H1B
   102 26     45     44     47  # H1A C1 C2
   103 26     46     44     47  # H1B C1 C2
   104 25      1     47     44  # C3 C2 C1
   105  6      1     47     48  # C3 C2 H2A
   106  6      1     47     49  # C3 C2 H2B
   107 27     44     47     48  # C1 C2 H2A
   108 27     44     47     49  # C1 C2 H2B
   109  8     48     47     49  # H2A C2 H2B
   110  6     24     50     51  # C17 C20 H20
   111 36     24     50     52  # C17 C20 C21
   112 25     24     50     56  # C17 C20 C22
   113 37     51     50     52  # H20 C20 C21
   114 26     51     50     56  # H20 C20 C22
   115 38     52     50     56  # C21 C20 C22
   116 39     50     52     53  # C20 C21 H21A
   117 39     50     52     54  # C20 C21 H21B
   118 39     50     52     55  # C20 C21 H21C
   119 32     53     52     54  # H21A C21 H21B
   120 32     53     52     55  # H21A C21 H21C
   121 32     54     52     55  # H21B C21 H21C
   122 27     50     56     57  # C20 C22 H22A
   123 27     50     56     58  # C20 C22 H22B
   124 40     50     56     59  # C20 C22 C23
   125  8     57     56     58  # H22A C22 H22B
   126 26     57     56     59  # H22A C22 C23
   127 26     58     56     59  # H22B C22 C23
   128 27     56     59     60  # C22 C23 H23A
   129 27     56     59     61  # C22 C23 H23B
   130 40     56     59     62  # C22 C23 C24
   131  8     60     59     61  # H23A C23 H23B
   132 26     60     59     62  # H23A C23 C24
   133 26     61     59     62  # H23B C23 C24
   134 27     59     62     63  # C23 C24 H24A
   135 27     59     62     64  # C23 C24 H24B
   136 28     59     62     65  # C23 C24 C25
   137  8     63     62     64  # H24A C24 H24B
   138 18     63     62     65  # H24A C24 C25
   139 18     64     62     65  # H24B C24 C25
   140 19     62     65     66  # C24 C25 H25
   141 41     62     65     67  # C24 C25 C26
   142 41     62     65     71  # C24 C25 C27
   143 42     66     65     67  # H25 C25 C26
   144 42     66     65     71  # H25 C25 C27
   145 43     67     65     71  # C26 C25 C27
   146 31     65     67     68  # C25 C26 H26A
   147 31     65     67     69  # C25 C26 H26B
   148 31     65     67     70  # C25 C26 H26C
   149 32     68     67     69  # H26A C26 H26B
   150 32     68     67     70  # H26A C26 H26C
   151 32     69     67     70  # H26B C26 H26C
   152 31     65     71     72  # C25 C27 H27A
   153 31     65     71     73  # C25 C27 H27B
   154 31     65     71     74  # C25 C27 H27C
   155 32     72     71     73  # H27A C27 H27B
   156 32     72     71     74  # H27A C27 H27C
   157 32     73     71     74  # H27B C27 H27C

Dihedrals

1    1    4    1    2    3
2    1    5    1    2    3
3    1    47    1    2    3
4    2    2    1    5    6
5    2    2    1    5    7
6    2    2    1    5    8
7    2    4    1    5    6
8    2    4    1    5    7
9    2    4    1    5    8
10    2    47    1    5    6
11    2    47    1    5    7
12    2    47    1    5    8
13    2    2    1    47    44
14    2    2    1    47    48
15    2    2    1    47    49
16    2    4    1    47    44
17    2    4    1    47    48
18    2    4    1    47    49
19    2    5    1    47    44
20    2    5    1    47    48
21    2    5    1    47    49
22    3    1    5    8    9
23    4    1    5    8    9
24    5    1    5    8    9
25    3    1    5    8    39
26    4    1    5    8    39
27    5    1    5    8    39
28    6    6    5    8    9
29    6    6    5    8    39
30    6    7    5    8    9
31    6    7    5    8    39
32    7    5    8    9    10
33    8    5    8    9    10
34    7    5    8    9    11
35    8    5    8    9    11
36    7    39    8    9    10
37    8    39    8    9    10
38    7    39    8    9    11
39    8    39    8    9    11
40    9    5    8    39    37
41    10    5    8    39    37
42    11    5    8    39    37
43    12    5    8    39    37
44    13    5    8    39    40
45    14    5    8    39    40
46    15    5    8    39    40
47    16    5    8    39    40
48    9    5    8    39    44
49    10    5    8    39    44
50    11    5    8    39    44
51    12    5    8    39    44
52    9    9    8    39    37
53    10    9    8    39    37
54    11    9    8    39    37
55    12    9    8    39    37
56    13    9    8    39    40
57    14    9    8    39    40
58    15    9    8    39    40
59    16    9    8    39    40
60    9    9    8    39    44
61    10    9    8    39    44
62    11    9    8    39    44
63    12    9    8    39    44
64    6    8    9    11    12
65    6    8    9    11    13
66    3    8    9    11    14
67    4    8    9    11    14
68    5    8    9    11    14
69    17    10    9    11    14
70    2    9    11    14    15
71    2    9    11    14    16
72    2    9    11    14    37
73    2    12    11    14    15
74    2    12    11    14    16
75    2    12    11    14    37
76    2    13    11    14    15
77    2    13    11    14    16
78    2    13    11    14    37
79    2    11    14    16    17
80    2    11    14    16    18
81    2    11    14    16    26
82    2    15    14    16    17
83    2    15    14    16    18
84    2    15    14    16    26
85    2    37    14    16    17
86    2    37    14    16    18
87    2    37    14    16    26
88    2    11    14    37    34
89    2    11    14    37    38
90    2    11    14    37    39
91    2    15    14    37    34
92    2    15    14    37    38
93    2    15    14    37    39
94    2    16    14    37    34
95    2    16    14    37    38
96    2    16    14    37    39
97    2    14    16    18    19
98    2    14    16    18    20
99    2    14    16    18    21
100    2    17    16    18    19
101    2    17    16    18    20
102    2    17    16    18    21
103    2    26    16    18    19
104    2    26    16    18    20
105    2    26    16    18    21
106    2    14    16    26    24
107    2    14    16    26    27
108    2    14    16    26    31
109    2    17    16    26    24
110    2    17    16    26    27
111    2    17    16    26    31
112    2    18    16    26    24
113    2    18    16    26    27
114    2    18    16    26    31
115    17    16    18    21    22
116    17    16    18    21    23
117    17    16    18    21    24
118    17    19    18    21    22
119    17    19    18    21    23
120    17    19    18    21    24
121    17    20    18    21    22
122    17    20    18    21    23
123    17    20    18    21    24
124    2    18    21    24    25
125    2    18    21    24    26
126    2    18    21    24    50
127    2    22    21    24    25
128    2    22    21    24    26
129    2    22    21    24    50
130    2    23    21    24    25
131    2    23    21    24    26
132    2    23    21    24    50
133    2    21    24    26    16
134    2    21    24    26    27
135    2    21    24    26    31
136    2    25    24    26    16
137    2    25    24    26    27
138    2    25    24    26    31
139    2    50    24    26    16
140    2    50    24    26    27
141    2    50    24    26    31
142    2    21    24    50    51
143    2    21    24    50    52
144    2    21    24    50    56
145    2    25    24    50    51
146    2    25    24    50    52
147    2    25    24    50    56
148    2    26    24    50    51
149    2    26    24    50    52
150    2    26    24    50    56
151    2    16    26    27    28
152    2    16    26    27    29
153    2    16    26    27    30
154    2    24    26    27    28
155    2    24    26    27    29
156    2    24    26    27    30
157    2    31    26    27    28
158    2    31    26    27    29
159    2    31    26    27    30
160    2    16    26    31    32
161    2    16    26    31    33
162    2    16    26    31    34
163    2    24    26    31    32
164    2    24    26    31    33
165    2    24    26    31    34
166    2    27    26    31    32
167    2    27    26    31    33
168    2    27    26    31    34
169    17    26    31    34    35
170    17    26    31    34    36
171    17    26    31    34    37
172    17    32    31    34    35
173    17    32    31    34    36
174    17    32    31    34    37
175    17    33    31    34    35
176    17    33    31    34    36
177    17    33    31    34    37
178    2    31    34    37    14
179    2    31    34    37    38