LAMMPS data file for default_name

15 atoms
15 bonds
24 angles
36 dihedrals
0 impropers

4 atom types
4 bond types
5 angle types
3 dihedral types

1.173 6.075 xlo xhi
-0.611 2.867 ylo yhi
0.458 5.752 zlo zhi

Masses

1 12.01
2 1.008
3 12.01
4 1.008

Pair Coeffs

1 0.10939999991572773 3.399669508450741
2 0.01570000002623629 2.649532787260222
3 0.08600000012835884 3.399669507944831
4 0.015000000064220668 2.5996424587350853

Bond Coeffs

1 344.3 1.087
2 478.4 1.387
3 337.3 1.092
4 323.5 1.513

Angle Coeffs

1 48.46 120.01005126147997
2 67.18 119.97005135892852
3 46.96 110.15004749409002
4 39.43 108.3500467226538
5 63.84 120.63005175638003

Dihedral Coeffs

1 3.625 -1 2
2 0.0 1 2
3 1.1 -1 2

Atoms

1 0 1 -0.0538 2.148 0.441 1.487
2 0 2 0.04336699999451222 2.522 0.473 0.458
3 0 2 0.04336699999451222 1.173 0.938 1.505
4 0 2 0.04336699999451222 2.022 -0.611 1.765
5 0 3 -0.0773 3.091 1.117 2.437
6 0 3 -0.131 2.783 1.18 3.802
7 0 4 0.12999999999999998 1.862 0.738 4.176
8 0 3 -0.1265 3.652 1.808 4.695
9 0 4 0.12999999999999998 3.405 1.851 5.752
10 0 3 -0.135 4.836 2.378 4.232
11 0 4 0.12999999999999998 5.513 2.867 4.927
12 0 3 -0.1265 5.152 2.321 2.876
13 0 4 0.12999999999999998 6.075 2.766 2.514
14 0 3 -0.131 4.283 1.693 1.981
15 0 4 0.12999999999999998 4.544 1.657 0.926

Bonds

1 1 14 15
2 1 12 13
3 1 10 11
4 1 8 9
5 1 6 7
6 3 1 2
7 3 1 3
8 3 1 4
9 2 12 14
10 2 10 12
11 2 8 10
12 2 6 8
13 2 5 6
14 2 5 14
15 4 1 5

Angles

1 1 13 12 14
2 1 12 14 15
3 1 11 10 12
4 1 10 12 13
5 1 9 8 10
6 1 8 10 11
7 1 7 6 8
8 1 6 8 9
9 1 5 6 7
10 1 5 14 15
11 3 4 1 5
12 4 3 1 4
13 3 3 1 5
14 4 2 1 3
15 4 2 1 4
16 3 2 1 5
17 2 10 12 14
18 2 8 10 12
19 2 6 5 14
20 2 6 8 10
21 2 5 6 8
22 2 5 14 12
23 5 1 5 6
24 5 1 5 14

Dihedrals

1 1 13 12 14 15
2 1 11 10 12 13
3 1 11 10 12 14
4 1 10 12 14 15
5 1 9 8 10 11
6 1 9 8 10 12
7 1 8 10 12 13
8 1 7 6 5 14
9 1 7 6 8 9
10 1 7 6 8 10
11 1 6 5 14 15
12 1 6 8 10 11
13 1 5 6 8 9
14 1 5 14 12 13
15 2 4 1 5 6
16 2 4 1 5 14
17 2 3 1 5 6
18 2 3 1 5 14
19 2 2 1 5 6
20 2 2 1 5 14
21 1 1 5 6 7
22 1 1 5 14 15
23 3 5 12 14 15
24 3 10 14 12 13
25 3 8 12 10 11
26 3 6 10 8 9
27 3 5 8 6 7
28 1 8 6 5 14
29 1 8 10 12 14
30 1 6 5 14 12
31 1 6 8 10 12
32 1 5 6 8 10
33 1 5 14 12 10
34 1 1 5 6 8
35 1 1 5 14 12
36 3 1 5 14 6

