LAMMPS data file for default_name

15 atoms
15 bonds
24 angles
36 dihedrals
0 impropers

4 atom types
4 bond types
5 angle types
3 dihedral types

1.6120000000000001 5.0049999999999999 xlo xhi
-1.1040000000000001 3.5070000000000001 ylo yhi
-1.395 3.835 zlo zhi

Masses

1 12.01
2 1.008
3 12.01
4 1.008

Pair Coeffs

1 0.086000000128358844 3.3996695079448309
2 0.015000000064220668 2.5996424587350853
3 0.10939999991572773 3.3996695084507409
4 0.01570000002623629 2.6495327872602221

Bond Coeffs

1 337.30000000000001 1.0920000000000001
2 323.5 1.5129999999999999
3 344.30000000000001 1.087
4 478.39999999999998 1.387

Angle Coeffs

1 39.43 108.3500467226538
2 46.960000000000001 110.15004749409002
3 48.460000000000001 120.01005126147997
4 63.840000000000003 120.63005175638003
5 67.180000000000007 119.97005135892852

Dihedral Coeffs

1 3.625 -1 2
2 0.0 1 2
3 1.1000000000000001 -1 2

Atoms

1 0 1 -0.13100000000000001 2.5310000000000001 2.0830000000000002 1.7050000000000001
2 0 2 0.12999999999999998 1.9199999999999999 2.976 1.5960000000000001
3 0 1 -0.1265 2.3559999999999999 1.262 2.8170000000000002
4 0 2 0.12999999999999998 1.6120000000000001 1.516 3.569
5 0 1 -0.13500000000000001 3.1339999999999999 0.115 2.9670000000000001
6 0 2 0.12999999999999998 2.9980000000000002 -0.52600000000000002 3.835
7 0 1 -0.1265 4.0869999999999997 -0.20899999999999999 2.0030000000000001
8 0 2 0.12999999999999998 4.694 -1.1040000000000001 2.1179999999999999
9 0 1 -0.13100000000000001 4.2610000000000001 0.61299999999999999 0.89100000000000001
10 0 2 0.12999999999999998 5.0049999999999999 0.35599999999999998 0.14099999999999999
11 0 1 -0.077299999999999994 3.484 1.762 0.73599999999999999
12 0 3 -0.053800000000000001 3.6819999999999999 2.6499999999999999 -0.47899999999999998
13 0 4 0.043366999994512219 3.0059999999999998 3.5070000000000001 -0.45900000000000002
14 0 4 0.043366999994512219 4.7069999999999999 3.0259999999999998 -0.51000000000000001
15 0 4 0.043366999994512219 3.492 2.0870000000000002 -1.395

Bonds

1 1 12 13
2 1 12 14
3 1 12 15
4 3 9 10
5 3 7 8
6 3 5 6
7 3 3 4
8 3 1 2
9 2 11 12
10 4 9 11
11 4 7 9
12 4 5 7
13 4 3 5
14 4 1 3
15 4 1 11

Angles

1 1 14 12 15
2 1 13 12 14
3 1 13 12 15
4 2 11 12 13
5 2 11 12 14
6 2 11 12 15
7 3 10 9 11
8 3 8 7 9
9 3 7 9 10
10 3 6 5 7
11 3 5 7 8
12 3 4 3 5
13 3 3 5 6
14 3 2 1 3
15 3 2 1 11
16 3 1 3 4
17 4 9 11 12
18 5 7 9 11
19 5 5 7 9
20 5 3 1 11
21 5 3 5 7
22 5 1 3 5
23 5 1 11 9
24 4 1 11 12

Dihedrals

1 1 10 9 11 12
2 2 9 11 12 13
3 2 9 11 12 14
4 2 9 11 12 15
5 1 8 7 9 10
6 1 8 7 9 11
7 1 6 5 7 8
8 1 6 5 7 9
9 1 5 7 9 10
10 1 11 1 3 4
11 1 4 3 5 6
12 1 4 3 5 7
13 1 3 5 7 8
14 1 2 1 3 4
15 1 2 1 3 5
16 1 2 1 11 9
17 1 2 1 11 12
18 1 1 3 5 6
19 1 1 11 9 10
20 2 1 11 12 13
21 2 1 11 12 14
22 2 1 11 12 15
23 3 7 11 9 10
24 3 5 9 7 8
25 3 3 7 5 6
26 3 1 5 3 4
27 3 2 1 11 3
28 1 7 9 11 12
29 1 11 1 3 5
30 1 5 7 9 11
31 1 3 1 11 9
32 1 3 1 11 12
33 1 3 5 7 9
34 1 1 3 5 7
35 1 1 11 9 7
36 3 1 9 11 12

