LAMMPS data file via write_data, version 1 Feb 2014, timestep = 5055000

5888 atoms
1536 bonds
1792 angles
0 dihedrals
0 impropers

6 atom types
5 bond types
5 angle types
0 dihedral types
0 improper types

      -33.20680        33.20680 xlo xhi
      -33.20680        33.20680 ylo yhi
      -31.57303        31.57303 zlo zhi

Atoms

     1  2      1.67478    -13.25442     17.83604    1  0.70000      0.00000      0.00000      0.00000      5.40000      1.10000 
     2  3     -1.73140    -10.55904     14.61070    1 -0.70000      0.00000      0.00000      0.00000      5.20000      1.20000 
     3  4     -0.28414    -10.24402     10.09431    1  0.00000     -0.28070     -0.17933     -0.00446     12.70000      0.05702 
     4  5      2.51822    -11.35454     12.14045    1  0.00000      0.04338     -0.17520      0.37525     12.70000      0.05702 
     5  6      5.97147    -11.41575     10.15735    1  0.00000      0.00000      0.00000      0.00000      4.50000      0.90000 
     6  6      8.52801     -9.03915      7.98051    1  0.00000      0.00000      0.00000      0.00000      4.50000      0.90000 
     7  6     10.36652     -8.87583      4.51496    1  0.00000      0.00000      0.00000      0.00000      4.50000      0.90000 
     8  6     11.22353     -8.49008      0.83552    1  0.00000      0.00000      0.00000      0.00000      4.50000      0.90000 
     9  5     -2.31952    -11.76991      8.79229    1  0.00000     -0.14569     -0.32113     -0.22144     12.70000      0.05702 
    10  6     -1.99195    -14.05383      6.22618    1  0.00000      0.00000      0.00000      0.00000      4.50000      0.90000 
    11  6     -3.04946    -16.46754      4.03963    1  0.00000      0.00000      0.00000      0.00000      4.50000      0.90000 
    12  6     -6.55148    -17.85611      1.49770    1  0.00000      0.00000      0.00000      0.00000      4.50000      0.90000 
    13  6     -9.32819    -18.16917      0.28620    1  0.00000      0.00000      0.00000      0.00000      4.50000      0.90000 
    14  2      8.45890    -13.31737     15.14232    2  0.70000      0.00000      0.00000      0.00000      5.40000      1.10000 
    15  3      4.69714     -8.64314     15.91139    2 -0.70000      0.00000      0.00000      0.00000      5.20000      1.20000 
    16  4      6.24780     -6.54143     12.47476    2  0.00000     -0.17983     -0.22342      0.16945     12.70000      0.05702 
    17  5     10.04488     -8.56817     12.79777    2  0.00000     -0.13631     -0.25286      0.30145     12.70000      0.05702 
    18  6     10.96008    -10.99619     11.45862    2  0.00000      0.00000      0.00000      0.00000      4.50000      0.90000 
    19  6     13.28978    -12.33009      9.39094    2  0.00000      0.00000      0.00000      0.00000      4.50000      0.90000 
    20  6     13.82224    -12.31408      6.41365    2  0.00000      0.00000      0.00000      0.00000      4.50000      0.90000 
    21  6     13.39342    -12.83504      3.39423    2  0.00000      0.00000      0.00000      0.00000      4.50000      0.90000 
    22  5      4.60765     -7.02349     10.19182    2  0.00000     -0.07061      0.40526     -0.06460     12.70000      0.05702 
    23  6      2.06416     -5.62219      7.95634    2  0.00000      0.00000      0.00000      0.00000      4.50000      0.90000 
    24  6      1.57497     -3.88454      5.83978    2  0.00000      0.00000      0.00000      0.00000      4.50000      0.90000 
    25  6     -0.21795     -3.61732      3.13464    2  0.00000      0.00000      0.00000      0.00000      4.50000      0.90000 
    26  6     -2.78035     -5.69694      1.46247    2  0.00000      0.00000      0.00000      0.00000      4.50000      0.90000 
    27  2     -6.78783     -8.16190     14.61796    3  0.70000      0.00000      0.00000      0.00000      5.40000      1.10000 
    28  3     -6.97111    -12.87370     11.24221    3 -0.70000      0.00000      0.00000      0.00000      5.20000      1.20000 
    29  4     -6.59317    -13.97980      7.30598    3  0.00000     -0.32536      0.02216      0.06797     12.70000      0.05702 
    30  5     -5.12515    -17.05407      8.82677    3  0.00000     -0.39051      0.06357     -0.12984     12.70000      0.05702 
    31  6     -3.59917    -20.72144      8.03973    3  0.00000      0.00000      0.00000      0.00000      4.50000      0.90000 
    32  6     -1.61920    -23.34582      8.06104    3  0.00000      0.00000      0.00000      0.00000      4.50000      0.90000 
    33  6     -0.71023    -24.55078     11.40096    3  0.00000      0.00000      0.00000      0.00000      4.50000      0.90000 
    34  6      1.52851    -26.78774     13.37461    3  0.00000      0.00000      0.00000      0.00000      4.50000      0.90000 
    35  5     -8.60460    -14.14274      4.76726    3  0.00000     -0.37389     -0.04300      0.17817     12.70000      0.05702 
    36  6    -11.01640    -14.76511      4.04407    3  0.00000      0.00000      0.00000      0.00000      4.50000      0.90000 
    37  6    -13.11123    -15.40649      1.60785    3  0.00000      0.00000      0.00000      0.00000      4.50000      0.90000 
    38  6    -14.87519    -16.59269     -1.05504    3  0.00000      0.00000      0.00000      0.00000      4.50000      0.90000 
    39  6    -16.71058    -16.64536     -3.29358    3  0.00000      0.00000      0.00000      0.00000      4.50000      0.90000 
    40  2      0.47646     -5.61710     13.23844    4  0.70000      0.00000      0.00000      0.00000      5.40000      1.10000 
    41  3     -3.41961     -3.25356     13.77124    4 -0.70000      0.00000      0.00000      0.00000      5.20000      1.20000 
    42  4     -4.66745     -3.73733     10.03525    4  0.00000     -0.03457     -0.33116      0.01033     12.70000      0.05702 
    43  5     -6.08103     -8.03808      9.07408    4  0.00000     -0.19453     -0.28351     -0.23489     12.70000      0.05702 
    44  6     -5.45031     -9.41399      6.45354    4  0.00000      0.00000      0.00000      0.00000      4.50000      0.90000 
    45  6     -6.70745     -8.98191      3.67956    4  0.00000      0.00000      0.00000      0.00000      4.50000      0.90000 
    46  6     -6.97536     -9.61206      0.26597    4  0.00000      0.00000      0.00000      0.00000      4.50000      0.90000 
    47  6     -3.80399     -9.68672     -1.85366    4  0.00000      0.00000      0.00000      0.00000      4.50000      0.90000 
    48  5     -2.41440     -6.09570      7.14293    4  0.00000     -0.22862     -0.29150     -0.19014     12.70000      0.05702 
    49  6     -0.88952     -8.59112      5.12576    4  0.00000      0.00000      0.00000      0.00000      4.50000      0.90000 
    50  6     -1.89458    -10.38813      2.36881    4  0.00000      0.00000      0.00000      0.00000      4.50000      0.90000 
    51  6     -4.70410    -13.30918      0.83626    4  0.00000      0.00000      0.00000      0.00000      4.50000      0.90000 
    52  6     -6.02484    -14.87362     -2.50281    4  0.00000      0.00000      0.00000      0.00000      4.50000      0.90000 
    53  2     -2.14613    -15.44437     12.84194    5  0.70000      0.00000      0.00000      0.00000      5.40000      1.10000 
    54  3     -2.69848    -17.90808     16.27515    5 -0.70000      0.00000      0.00000      0.00000      5.20000      1.20000 
    55  4     -2.46084    -20.90073     13.10777    5  0.00000      0.02730      0.12471      0.30769     12.70000      0.05702 
    56  5      0.27098    -19.74625     10.49610    5  0.00000      0.26968     -0.11700     -0.29492     12.70000      0.05702 
    57  6      0.89607    -18.13407      7.16801    5  0.00000      0.00000      0.00000      0.00000      4.50000      0.90000 
    58  6      1.37964    -17.85859      3.93805    5  0.00000      0.00000      0.00000      0.00000      4.50000      0.90000 
    59  6      1.02203    -15.93819      1.97109    5  0.00000      0.00000      0.00000      0.00000      4.50000      0.90000 
    60  6      2.38608    -12.69586      1.70812    5  0.00000      0.00000      0.00000      0.00000      4.50000      0.90000 
    61  5     -5.76578    -20.46356     12.47826    5  0.00000      0.00864      0.38516     -0.15803     12.70000      0.05702 
    62  6     -8.17736    -21.00278      9.65373    5  0.00000      0.00000      0.00000      0.00000      4.50000      0.90000 
    63  6     -7.92584    -19.96829      5.96190    5  0.00000      0.00000      0.00000      0.00000      4.50000      0.90000 
    64  6    -10.72918    -19.64111      5.15013    5  0.00000      0.00000      0.00000      0.00000      4.50000      0.90000 
    65  6    -13.67404    -18.81139      5.42341    5  0.00000      0.00000      0.00000      0.00000      4.50000      0.90000 
    66  2     12.60119    -14.50998     19.90299    6  0.70000      0.00000      0.00000      0.00000      5.40000      1.10000 
    67  3      9.48910    -18.20903     17.04444    6 -0.70000      0.00000      0.00000      0.00000      5.20000      1.20000 
    68  4     10.46107    -18.83093     13.24296    6  0.00000      0.18835     -0.02405      0.27371     12.70000      0.05702 
    69  5     13.55198    -21.49028     11.88990    6  0.00000     -0.15402     -0.36947     -0.11474     12.70000      0.05702 
    70  6     16.34218    -21.62991      9.50276    6  0.00000      0.00000      0.00000      0.00000      4.50000      0.90000 
    71  6     18.14722    -20.27160      6.83349    6  0.00000      0.00000      0.00000      0.00000      4.50000      0.90000 
    72  6     20.04422    -19.74577      3.54854    6  0.00000      0.00000      0.00000      0.00000      4.50000      0.90000 
    73  6     22.00577    -19.58755      0.83366    6  0.00000      0.00000      0.00000      0.00000      4.50000      0.90000 
    74  5      9.11889    -15.74801     10.33539    6  0.00000     -0.29334      0.00046     -0.29553     12.70000      0.05702 
    75  6      9.00016    -14.25384      7.15658    6  0.00000      0.00000      0.00000      0.00000      4.50000      0.90000 
    76  6      7.59840    -13.22513      4.05163    6  0.00000      0.00000      0.00000      0.00000      4.50000      0.90000 
    77  6      6.94062    -11.04826      1.74342    6  0.00000      0.00000      0.00000      0.00000      4.50000      0.90000 
    78  6      6.44008     -9.03868     -1.13708    6  0.00000      0.00000      0.00000      0.00000      4.50000      0.90000 
    79  2      5.30736    -20.94443     14.69743    7  0.70000      0.00000      0.00000      0.00000      5.40000      1.10000 
    80  3      3.61000    -16.36818     11.69262    7 -0.70000      0.00000      0.00000      0.00000      5.20000      1.20000 
    81  4      5.21068    -17.23050      6.41526    7  0.00000      0.11480      0.18840      0.24960     12.70000      0.05702 
    82  5      7.72037    -19.12978      6.38428    7  0.00000      0.31624      0.23810     -0.12920     12.70000      0.05702 
    83  6      9.87223    -18.71789      5.16810    7  0.00000      0.00000      0.00000      0.00000      4.50000      0.90000 
    84  6     10.39096    -17.30119      1.77813    7  0.00000      0.00000      0.00000      0.00000      4.50000      0.90000 
    85  6     10.35761    -14.48363     -0.52728    7  0.00000      0.00000      0.00000      0.00000      4.50000      0.90000 
    86  6     11.02275    -11.45202     -3.20839    7  0.00000      0.00000      0.00000      0.00000      4.50000      0.90000 
    87  5      3.42412    -14.00584      6.16959    7  0.00000     -0.23153      0.34563      0.01802     12.70000      0.05702 
    88  6      3.71996     -9.80515      6.06475    7  0.00000      0.00000      0.00000      0.00000      4.50000      0.90000 
    89  6      6.10930     -6.19083      5.05678    7  0.00000      0.00000      0.00000      0.00000      4.50000      0.90000 
    90  6      6.98488     -4.17039      6.02924    7  0.00000      0.00000      0.00000      0.00000      4.50000      0.90000 
    91  6      8.62773     -2.02112      5.18950    7  0.00000      0.00000      0.00000      0.00000      4.50000      0.90000 
    92  2     -0.44151      1.99155     15.76573    8  0.70000      0.00000      0.00000      0.00000      5.40000      1.10000 
    93  3      4.05761     -1.19235     14.49684    8 -0.70000      0.00000      0.00000      0.00000      5.20000      1.20000 
    94  4      3.57380     -2.15010     10.54942    8  0.00000      0.14691      0.04836      0.29503     12.70000      0.05702 
    95  5      6.69808     -0.57158      9.66805    8  0.00000      0.06449      0.22990      0.34115     12.70000      0.05702 
    96  6     10.71060      0.73370      9.48394    8  0.00000      0.00000      0.00000      0.00000      4.50000      0.90000 
    97  6     13.29986     -0.74292      7.22879    8  0.00000      0.00000      0.00000      0.00000      4.50000      0.90000 
    98  6     16.41662     -1.46476      5.10004    8  0.00000      0.00000      0.00000      0.00000      4.50000      0.90000 
    99  6     19.49115     -0.39119      3.38907    8  0.00000      0.00000      0.00000      0.00000      4.50000      0.90000 
   100  5      0.65446     -1.61617      9.70827    8  0.00000     -0.25476      0.18026      0.27568     12.70000      0.05702 
   101  6     -1.73044      1.07141     10.09476    8  0.00000      0.00000      0.00000      0.00000      4.50000      0.90000 
   102  6     -2.06005      4.14064      7.61128    8  0.00000      0.00000      0.00000      0.00000      4.50000      0.90000 
   103  6     -1.72680      6.05994      5.52914    8  0.00000      0.00000      0.00000      0.00000      4.50000      0.90000 
   104  6     -0.10373      7.78058      1.75304    8  0.00000      0.00000      0.00000      0.00000      4.50000      0.90000 
   105  2     -5.46153    -22.95169     17.38057    9  0.70000      0.00000      0.00000      0.00000      5.40000      1.10000 
   106  3     -9.62777    -23.56698     15.59949    9 -0.70000      0.00000      0.00000      0.00000      5.20000      1.20000 
   107  4    -11.48420    -23.73793     12.13540    9  0.00000      0.33296      0.00738     -0.00747     12.70000      0.05702 
   108  5    -13.04598    -20.65401     11.40932    9  0.00000     -0.05670      0.17695     -0.37265     12.70000      0.05702 
   109  6    -12.74481    -18.09689      9.75658    9  0.00000      0.00000      0.00000      0.00000      4.50000      0.90000 
   110  6    -11.10626    -15.51874      9.37684    9  0.00000      0.00000      0.00000      0.00000      4.50000      0.90000 
   111  6    -10.96446    -12.00056      8.13790    9  0.00000      0.00000      0.00000      0.00000      4.50000      0.90000 
   112  6    -11.05500     -8.94547      6.98352    9  0.00000      0.00000      0.00000      0.00000      4.50000      0.90000 
   113  5    -10.26893    -26.95334     11.61949    9  0.00000      0.40071      0.10874     -0.03164     12.70000      0.05702 
   114  6     -8.21910    -29.71557     10.77339    9  0.00000      0.00000      0.00000      0.00000      4.50000      0.90000 
   115  6     -4.55445    -29.98458      9.66290    9  0.00000      0.00000      0.00000      0.00000      4.50000      0.90000 
   116  6     -1.48563    -29.33961      9.34975    9  0.00000      0.00000      0.00000      0.00000      4.50000      0.90000 
   117  6      1.34171    -26.61400      7.50495    9  0.00000      0.00000      0.00000      0.00000      4.50000      0.90000 
   118  2    -10.87491    -15.01887     14.99625   10  0.70000      0.00000      0.00000      0.00000      5.40000      1.10000 
   119  3    -11.69992     -9.96552     16.44994   10 -0.70000      0.00000      0.00000      0.00000      5.20000      1.20000 
   120  4    -11.80311     -7.91931     12.22362   10  0.00000      0.14951     -0.29449     -0.04353     12.70000      0.05702 
   121  5    -14.35069    -10.18334     11.23382   10  0.00000      0.05281     -0.36473     -0.19384     12.70000      0.05702 
   122  6    -15.64942     -9.47296      7.48103   10  0.00000      0.00000      0.00000      0.00000      4.50000      0.90000 
   123  6    -15.82632     -8.17291      3.97321   10  0.00000      0.00000      0.00000      0.00000      4.50000      0.90000 
   124  6    -14.24956     -7.00915      0.34878   10  0.00000      0.00000      0.00000      0.00000      4.50000      0.90000 
   125  6    -11.40733     -8.34818     -1.93330   10  0.00000      0.00000      0.00000      0.00000      4.50000      0.90000 
   126  5     -9.66911     -5.16172     11.14461   10  0.00000      0.21991      0.22197     -0.27525     12.70000      0.05702 
   127  6     -8.41068     -4.69276      6.96945   10  0.00000      0.00000      0.00000      0.00000      4.50000      0.90000 
   128  6     -6.09217     -3.75556      4.90201   10  0.00000      0.00000      0.00000      0.00000      4.50000      0.90000 
   129  6     -3.83314     -1.29363      5.86714   10  0.00000      0.00000      0.00000      0.00000      4.50000      0.90000 
   130  6     -0.61841      0.52634      5.21404   10  0.00000      0.00000      0.00000      0.00000      4.50000      0.90000 
   131  2     14.75908     -3.88079     16.70334   11  0.70000      0.00000      0.00000      0.00000      5.40000      1.10000 
   132  3     11.81965     -0.54583     17.75436   11 -0.70000      0.00000      0.00000      0.00000      5.20000      1.20000 
   133  4      8.95346     -0.02373     14.91323   11  0.00000     -0.16265     -0.19617      0.21456     12.70000      0.05702 
   134  5      7.47734      2.97865     13.43024   11  0.00000     -0.19360     -0.21636     -0.29849     12.70000      0.05702 
   135  6      7.33805      4.30750     10.31454   11  0.00000      0.00000      0.00000      0.00000      4.50000      0.90000 
   136  6      6.80635      7.34760      8.94536   11  0.00000      0.00000      0.00000      0.00000      4.50000      0.90000 
   137  6      5.90272     10.02595     12.08622   11  0.00000      0.00000      0.00000      0.00000      4.50000      0.90000 
   138  6      5.73288     14.25140     12.67949   11  0.00000      0.00000      0.00000      0.00000      4.50000      0.90000 
   139  5     11.32602     -3.02430     12.88722   11  0.00000      0.17142     -0.01003     -0.37934     12.70000      0.05702 
   140  6     11.26017     -3.83326     10.71707   11  0.00000      0.00000      0.00000      0.00000      4.50000      0.90000 
   141  6     11.30413     -5.12875      8.62169   11  0.00000      0.00000      0.00000      0.00000      4.50000      0.90000 
   142  6     12.56838     -4.60822      3.96381   11  0.00000      0.00000      0.00000      0.00000      4.50000      0.90000 
   143  6     12.77665     -4.25375      0.83981   11  0.00000      0.00000      0.00000      0.00000      4.50000      0.90000 
   144  2     11.09298    -23.96331     19.21034   12  0.70000      0.00000      0.00000      0.00000      5.40000      1.10000 
   145  3     13.90729    -27.87562     16.16908   12 -0.70000      0.00000      0.00000      0.00000      5.20000      1.20000 
   146  4     14.20794    -25.81879     13.64271   12  0.00000      0.20451     -0.22380     -0.13805     12.70000      0.05702 
   147  5     12.72415    -26.63299     11.37323   12  0.00000      0.31198     -0.11153     -0.25223     12.70000      0.05702 
   148  6      9.80454    -28.12085     10.03110   12  0.00000      0.00000      0.00000      0.00000      4.50000      0.90000 
   149  6      7.15673    -27.45473      8.43924   12  0.00000      0.00000      0.00000      0.00000      4.50000      0.90000 
   150  6      7.06598    -25.66159      6.23301   12  0.00000      0.00000      0.00000      0.00000      4.50000      0.90000 
   151  6      8.36939    -23.67139      3.94639   12  0.00000      0.00000      0.00000      0.00000      4.50000      0.90000 
   152  5     17.19652    -27.03843     11.88055   12  0.00000      0.32421     -0.24246      0.09744     12.70000      0.05702 
   153  6     18.64486    -30.39230     10.19186   12  0.00000      0.00000      0.00000      0.00000      4.50000      0.90000 
   154  6     18.52839    -30.31482      6.05545   12  0.00000      0.00000      0.00000      0.00000      4.50000      0.90000 
   155  6     15.96708    -30.28006      3.06246   12  0.00000      0.00000      0.00000      0.00000      4.50000      0.90000 
   156  6     12.41578    -31.22801      3.52017   12  0.00000      0.00000      0.00000      0.00000      4.50000      0.90000 
   157  2     16.33895      4.22190     17.44701   13  0.70000      0.00000      0.00000      0.00000      5.40000      1.10000 
   158  3     12.38886      9.45847     19.18946   13 -0.70000      0.00000      0.00000      0.00000      5.20000      1.20000 
   159  4     10.10790     11.64536     14.57014   13  0.00000     -0.32403     -0.07362      0.02367     12.70000      0.05702 
   160  5     10.21020      8.06343     12.02410   13  0.00000      0.31316     -0.24158      0.13024     12.70000      0.05702 
   161  6     11.86833      5.73913     10.24146   13  0.00000      0.00000      0.00000      0.00000      4.50000      0.90000 
   162  6     12.42535      4.74828      7.02788   13  0.00000      0.00000      0.00000      0.00000      4.50000      0.90000 
   163  6     11.71176      5.23786      4.27283   13  0.00000      0.00000      0.00000      0.00000      4.50000      0.90000 
   164  6     13.19599      7.50873      2.03325   13  0.00000      0.00000      0.00000      0.00000      4.50000      0.90000 
   165  5     12.87739     12.02467     13.86751   13  0.00000     -0.38764      0.12396     -0.08809     12.70000      0.05702 
   166  6     14.85555     10.77001     11.41932   13  0.00000      0.00000      0.00000      0.00000      4.50000      0.90000 
   167  6     18.19594     10.41527     10.42550   13  0.00000      0.00000      0.00000      0.00000      4.50000      0.90000 
   168  6     22.38858     10.61899     10.01313   13  0.00000      0.00000      0.00000      0.00000      4.50000      0.90000 
   169  6     24.16548      8.09949      7.16425   13  0.00000      0.00000      0.00000      0.00000      4.50000      0.90000 
   170  2      7.94599     -4.78130     17.19507   14  0.70000      0.00000      0.00000      0.00000      5.40000      1.10000 
   171  3     11.51830     -9.21427     18.16972   14 -0.70000      0.00000      0.00000      0.00000      5.20000      1.20000 
   172  4     14.36854     -9.36965     15.25802   14  0.00000     -0.28686      0.15898      0.05840     12.70000      0.05702 
   173  5     14.55662     -7.16773     12.69578   14  0.00000     -0.38659     -0.01011     -0.15440     12.70000      0.05702 
   174  6     14.92126     -7.73818      9.51408   14  0.00000      0.00000      0.00000      0.00000      4.50000      0.90000 
   175  6     15.67094     -6.89841      5.81391   14  0.00000      0.00000      0.00000      0.00000      4.50000      0.90000 
   176  6     17.90196     -5.50426      3.92985   14  0.00000      0.00000      0.00000      0.00000      4.50000      0.90000 
   177  6     18.64084     -4.79601      0.52818   14  0.00000      0.00000      0.00000      0.00000      4.50000      0.90000 
   178  5     13.73943    -13.76157     14.71906   14  0.00000      0.25130     -0.02909     -0.33075     12.70000      0.05702 
   179  6     14.82725    -16.75124     12.01409   14  0.00000      0.00000      0.00000      0.00000      4.50000      0.90000 
   180  6     13.45511    -17.74311      8.45403   14  0.00000      0.00000      0.00000      0.00000      4.50000      0.90000 
   181  6     14.98731    -17.09804      5.57027   14  0.00000      0.00000      0.00000      0.00000      4.50000      0.90000 
   182  6     15.40489    -17.11832      1.99990   14  0.00000      0.00000      0.00000      0.00000      4.50000      0.90000 
   183  2    -17.04261    -12.23974     15.72222   15  0.70000      0.00000      0.00000      0.00000      5.40000      1.10000 
   184  3    -21.75353    -12.46109     17.20881   15 -0.70000      0.00000      0.00000      0.00000      5.20000      1.20000 
   185  4    -23.38035    -16.56017     15.59389   15  0.00000      0.26890      0.16625      0.10500     12.70000      0.05702 
   186  5    -24.72849    -14.23894     13.05524   15  0.00000     -0.18912     -0.20728     -0.30767     12.70000      0.05702 
   187  6    -23.07868    -14.64313      9.72493   15  0.00000      0.00000      0.00000      0.00000      4.50000      0.90000 
   188  6    -20.38171    -15.58080      6.74078   15  0.00000      0.00000      0.00000      0.00000      4.50000      0.90000 
   189  6    -21.90736    -16.98229      2.25400   15  0.00000      0.00000      0.00000      0.00000      4.50000      0.90000 
   190  6    -20.12505    -15.47038      0.05556   15  0.00000      0.00000      0.00000      0.00000      4.50000      0.90000 
   191  5    -20.87192    -18.05453     13.47135   15  0.00000      0.05304     -0.40156     -0.09659     12.70000      0.05702 
   192  6    -22.26036    -19.72779     10.04468   15  0.00000      0.00000      0.00000      0.00000      4.50000      0.90000 
   193  6    -23.86014    -20.11199      7.28234   15  0.00000      0.00000      0.00000      0.00000      4.50000      0.90000 
   194  6    -22.82415    -21.06704      4.29994   15  0.00000      0.00000      0.00000      0.00000      4.50000      0.90000 
   195  6    -21.46114    -24.53902      2.65128   15  0.00000      0.00000      0.00000      0.00000      4.50000      0.90000 
   196  2      3.69048    -30.90864     17.28730   16  0.70000      0.00000      0.00000      0.00000      5.40000      1.10000 
   197  3      5.70575    -25.96112     17.52689   16 -0.70000      0.00000      0.00000      0.00000      5.20000      1.20000 
   198  4      6.91581    -26.52831     13.76359   16  0.00000      0.30890     -0.12468     -0.00275     12.70000      0.05702 
   199  5      9.32888    -23.69173     13.10039   16  0.00000      0.29869     -0.16308     -0.23996     12.70000      0.05702 
   200  6      9.47568    -22.86012      9.88151   16  0.00000      0.00000      0.00000      0.00000      4.50000      0.90000 
   201  6     11.69195    -23.34265      7.20188   16  0.00000      0.00000      0.00000      0.00000      4.50000      0.90000 
   202  6     13.58340    -21.99633      5.31599   16  0.00000      0.00000      0.00000      0.00000      4.50000      0.90000 
   203  6     15.68597    -21.68057      2.58155   16  0.00000      0.00000      0.00000      0.00000      4.50000      0.90000 
   204  5      4.87701    -23.93114     10.60491   16  0.00000     -0.13410      0.16535     -0.35788     12.70000      0.05702 
   205  6      3.78150    -22.46903      7.04350   16  0.00000      0.00000      0.00000      0.00000      4.50000      0.90000 
   206  6      4.18497    -21.67545      3.25869   16  0.00000      0.00000      0.00000      0.00000      4.50000      0.90000 
   207  6      6.77340    -20.91192     -0.13021   16  0.00000      0.00000      0.00000      0.00000      4.50000      0.90000 
   208  6      7.83282    -18.39276     -2.32130   16  0.00000      0.00000      0.00000      0.00000      4.50000      0.90000 
   209  2     -9.83064      2.36814     13.89050   17  0.70000      0.00000      0.00000      0.00000      5.40000      1.10000 
   210  3    -12.69676     -0.21053     12.39043   17 -0.70000      0.00000      0.00000      0.00000      5.20000      1.20000 
   211  4    -12.24689     -2.36194      8.33779   17  0.00000     -0.03898      0.32569      0.05808     12.70000      0.05702 
   212  5     -8.44107     -0.59210      9.34094   17  0.00000      0.16104      0.37088      0.09952     12.70000      0.05702 
   213  6     -6.22769      1.89996      8.08267   17  0.00000      0.00000      0.00000      0.00000      4.50000      0.90000 
   214  6     -5.58001      2.68688      4.80214   17  0.00000      0.00000      0.00000      0.00000      4.50000      0.90000 
   215  6     -3.20835      3.16124      1.79394   17  0.00000      0.00000      0.00000      0.00000      4.50000      0.90000 
   216  6     -2.67523      5.63484     -1.83389   17  0.00000      0.00000      0.00000      0.00000      4.50000      0.90000 
   217  5    -15.81290     -1.22343      7.89399   17  0.00000     -0.36865     -0.12055     -0.15153     12.70000      0.05702 
   218  6    -17.45864      0.47925      7.32874   17  0.00000      0.00000      0.00000      0.00000      4.50000      0.90000 
   219  6    -16.77162      3.77594      6.00192   17  0.00000      0.00000      0.00000      0.00000      4.50000      0.90000 
   220  6    -15.87496      4.34951      3.80516   17  0.00000      0.00000      0.00000      0.00000      4.50000      0.90000 
   221  6    -15.61705      4.88990      0.12103   17  0.00000      0.00000      0.00000      0.00000      4.50000      0.90000 
   222  2     18.56496    -24.99385     17.18810   18  0.70000      0.00000      0.00000      0.00000      5.40000      1.10000 
   223  3     19.54591    -20.08719     21.43219   18 -0.70000      0.00000      0.00000      0.00000      5.20000      1.20000 
   224  4     17.76950    -16.77873     20.44077   18  0.00000      0.30835      0.10000     -0.07675     12.70000      0.05702 
   225  5     13.53067    -19.62902     20.25423   18  0.00000     -0.10869      0.22416     -0.33366     12.70000      0.05702 
   226  6     14.41823    -21.09966     16.39626   18  0.00000      0.00000      0.00000      0.00000      4.50000      0.90000 
   227  6     18.14915    -19.46184     14.74373   18  0.00000      0.00000      0.00000      0.00000      4.50000      0.90000 
   228  6     19.53825    -17.99552     10.97997   18  0.00000      0.00000      0.00000      0.00000      4.50000      0.90000 
   229  6     22.01105    -17.47423      7.67544   18  0.00000      0.00000      0.00000      0.00000      4.50000      0.90000 