LAMMPS data file via write_data, version 1 Feb 2014, timestep = 15054000

6784 atoms
6 atom types
1536 bonds
5 bond types
1792 angles
5 angle types

-3.3724772880037975e+01 3.3724772880037975e+01 xlo xhi
-3.3724772880037975e+01 3.3724772880037975e+01 ylo yhi
-3.3714977814907463e+01 3.3714977814907463e+01 zlo zhi

Masses

1 40
2 90
3 90
4 62
5 62
6 42

Bond Coeffs

1 1.506 4.77
2 1.506 4.41
3 1.506 4.14
4 1.506 4.095
5 1.506 4.05

Atoms

5416 1 -3.0074912562455872e+01 -3.0654292841099259e+01 -3.0321580231946829e+01 0 0.0000000000000000e+00 1.3675345088056740e-01 -4.4341413381732925e-01 -2.7876855902932085e-01 5.0000000000000000e+00 5.8320000000000005e-01 3 2 0
5618 1 -3.1639508284407409e+01 -3.2517617720783321e+01 -2.6560596676912173e+01 0 0.0000000000000000e+00 -1.7382316970517543e-02 -2.2103682881878370e-01 -4.9383831925284233e-01 5.0000000000000000e+00 5.8320000000000005e-01 -1 -3 0
3010 1 -3.1684141715549764e+01 -2.9687153008085037e+01 -2.6919665201863594e+01 0 0.0000000000000000e+00 9.7636727801872478e-02 -1.4716140625711124e-01 5.1170911501806626e-01 5.0000000000000000e+00 5.8320000000000005e-01 -1 5 1
6414 1 -2.8140542993836448e+01 -3.0059476274717589e+01 -2.8060580838959805e+01 0 0.0000000000000000e+00 -3.4877495518288365e-01 -3.3230004352296932e-01 -2.4690875057763778e-01 5.0000000000000000e+00 5.8320000000000005e-01 0 -1 0
2758 1 -2.8124505466011719e+01 -2.7283481258412433e+01 -3.1764156498920261e+01 0 0.0000000000000000e+00 1.5163341586840112e-01 -3.3761605686942098e-01 3.9504658489350897e-01 5.0000000000000000e+00 5.8320000000000005e-01 -2 0 1
2058 1 -2.9057941571908174e+01 -3.2945320867934150e+01 -2.8338373566029670e+01 0 0.0000000000000000e+00 1.2512775501690560e-01 -5.1411736042724476e-01 -1.1427389742085335e-01 5.0000000000000000e+00 5.8320000000000005e-01 -2 -2 1
3924 1 -3.0831135452478751e+01 -3.3543960098218832e+01 -3.0997146971889681e+01 0 0.0000000000000000e+00 -5.3579120051362461e-01 3.3025260508975404e-02 6.9800671346937557e-02 5.0000000000000000e+00 5.8320000000000005e-01 2 2 0
4202 1 -3.0144529068952760e+01 -2.7793359692562877e+01 -2.9340846216657287e+01 0 0.0000000000000000e+00 -2.9847682198893850e-03 -5.3053096730804705e-01 -1.0751603129701864e-01 5.0000000000000000e+00 5.8320000000000005e-01 0 1 0
4772 1 -2.7175552593542168e+01 -2.7489530263645293e+01 -2.6654045178654886e+01 0 0.0000000000000000e+00 -1.3383508623917439e-01 -1.1414010603119845e-01 -5.1194512429218375e-01 5.0000000000000000e+00 5.8320000000000005e-01 -2 -3 0
5866 1 -3.0505721251832291e+01 -3.1712471032318149e+01 -3.3404923764475690e+01 0 0.0000000000000000e+00 -1.5576498083704290e-01 4.0194021966957538e-01 -3.2742794070880571e-01 5.0000000000000000e+00 5.8320000000000005e-01 -3 2 1
3640 1 -2.8691772287420484e+01 -3.2766374027373693e+01 -2.5245110577397540e+01 0 0.0000000000000000e+00 -2.8973104120238613e-01 -2.4641942286992166e-01 -3.8518316733242114e-01 5.0000000000000000e+00 5.8320000000000005e-01 -6 -3 1
5358 1 -2.8119360712176285e+01 -3.3126322727838847e+01 -3.1983672576822592e+01 0 0.0000000000000000e+00 -4.9397105111702438e-01 4.5552418827414606e-02 -2.1669612917012124e-01 5.0000000000000000e+00 5.8320000000000005e-01 -1 0 0
5105 1 -2.3760212433416285e+01 -3.2264206528886888e+01 -2.6106889598906449e+01 0 0.0000000000000000e+00 -4.4532150674287940e-01 7.9392161918420578e-02 -2.9735032900296388e-01 5.0000000000000000e+00 5.8320000000000005e-01 1 7 0
3388 1 -2.6834672784039171e+01 -2.9784635522994247e+01 -3.0595778254676109e+01 0 0.0000000000000000e+00 5.0751479147189493e-01 6.6999249659308244e-02 1.7599354301317027e-01 5.0000000000000000e+00 5.8320000000000005e-01 3 1 1
5496 1 -2.3100638209605620e+01 -3.2363831470153777e+01 -2.9241254969772903e+01 0 0.0000000000000000e+00 4.8532245500535631e-01 1.1961100657251927e-01 -2.0781372349843200e-01 5.0000000000000000e+00 5.8320000000000005e-01 4 -1 0
5474 1 -2.2652191938123977e+01 -2.7508155460031663e+01 -2.6259798604984748e+01 0 0.0000000000000000e+00 5.1785544677304296e-01 1.4237572890365835e-01 6.7764190149695952e-02 5.0000000000000000e+00 5.8320000000000005e-01 2 -1 0
6169 1 -2.4857471361819748e+01 -2.9720229931773943e+01 -2.7065934933346590e+01 0 0.0000000000000000e+00 3.1958307547956246e-03 5.3784052513110547e-01 6.1268373509368479e-02 5.0000000000000000e+00 5.8320000000000005e-01 4 4 1
6065 1 -2.5030491550577697e+01 -2.7392102427156217e+01 -2.9056901493360311e+01 0 0.0000000000000000e+00 -6.5642906592377273e-02 4.2764632534817854e-01 -3.2533243879192897e-01 5.0000000000000000e+00 5.8320000000000005e-01 0 4 1
3913 1 -2.2717771652568615e+01 -2.6314451166684673e+01 -3.1709103097665103e+01 0 0.0000000000000000e+00 3.6297800316962414e-01 -7.3998563024059716e-02 3.9471950659343724e-01 5.0000000000000000e+00 5.8320000000000005e-01 6 -1 0
5763 1 -2.2128978069277906e+01 -2.8479555331564995e+01 -2.9162137451480440e+01 0 0.0000000000000000e+00 -1.4223083852690305e-01 -2.1641909521845273e-01 4.7535906628227920e-01 5.0000000000000000e+00 5.8320000000000005e-01 1 3 1
4318 1 -2.6213138519793965e+01 -3.2234153330833280e+01 -2.8778956457082305e+01 0 0.0000000000000000e+00 4.9043769072752164e-01 1.3054675964268225e-01 1.8831838189792172e-01 5.0000000000000000e+00 5.8320000000000005e-01 -3 2 0
2317 1 -2.0178668662143195e+01 -3.2023163940487144e+01 -2.9289307348333928e+01 0 0.0000000000000000e+00 3.7720807037547277e-01 2.0105063535513684e-01 3.3215099784120494e-01 5.0000000000000000e+00 5.8320000000000005e-01 -2 0 1
2910 1 -2.0770939411754487e+01 -3.2842162614549913e+01 -3.2660011248355048e+01 0 0.0000000000000000e+00 -2.5384681694182515e-01 4.6094606143905409e-01 1.2698542937017329e-01 5.0000000000000000e+00 5.8320000000000005e-01 5 -2 1
2308 1 -2.1373827191185512e+01 -3.0371433591774846e+01 -2.6640766654139433e+01 0 0.0000000000000000e+00 4.9089570011168163e-02 -4.5170156942942591e-01 2.9427003328764578e-01 5.0000000000000000e+00 5.8320000000000005e-01 0 1 1
6599 1 -2.5049568804501583e+01 -3.3095938315251374e+01 -3.1874284726615905e+01 0 0.0000000000000000e+00 -5.2649363727395260e-01 2.5401353587240567e-02 1.2325589051229816e-01 5.0000000000000000e+00 5.8320000000000005e-01 3 1 0
5104 1 -2.1507718261673631e+01 -3.0195917549338319e+01 -3.2127835191690721e+01 0 0.0000000000000000e+00 1.2587069130500847e-02 5.1636319863301439e-01 1.6199235194349804e-01 5.0000000000000000e+00 5.8320000000000005e-01 0 -1 0
3705 1 -2.5319677788134712e+01 -2.7614674945130474e+01 -3.2462468538961943e+01 0 0.0000000000000000e+00 3.8003411311976454e-01 3.6400447088239196e-02 -3.8377467532010279e-01 5.0000000000000000e+00 5.8320000000000005e-01 1 1 0
2954 1 -1.8535486523483062e+01 -2.7541052384182152e+01 -2.7000576420152825e+01 0 0.0000000000000000e+00 2.5891797956543283e-01 -4.3183945711680816e-01 1.9876389142601913e-01 5.0000000000000000e+00 5.8320000000000005e-01 -2 0 1
1923 1 -1.6492812925483658e+01 -3.1663517520524636e+01 -2.9450723765483438e+01 0 0.0000000000000000e+00 8.7786819436702468e-02 -1.9003606837212014e-01 -4.9921752328103886e-01 5.0000000000000000e+00 5.8320000000000005e-01 -1 -3 1
6079 1 -1.7045774105697067e+01 -3.0113074256053146e+01 -2.6991435875101409e+01 0 0.0000000000000000e+00 2.3230318896727759e-01 -9.5710036756359529e-02 -4.7948742700901914e-01 5.0000000000000000e+00 5.8320000000000005e-01 -3 -5 1
1767 1 -1.9377015299291571e+01 -3.2642427961647286e+01 -2.6412054852980482e+01 0 0.0000000000000000e+00 8.2582298623920414e-02 -2.3916949339038190e-01 4.7855045782589911e-01 5.0000000000000000e+00 5.8320000000000005e-01 9 -1 1
4724 1 -1.6818977144814440e+01 -2.8846185810046844e+01 -3.1303090184649960e+01 0 0.0000000000000000e+00 -3.8425702971752707e-01 -2.2418787305718901e-01 -3.0841266573660236e-01 5.0000000000000000e+00 5.8320000000000005e-01 -5 3 0
6417 1 -1.4892964411249608e+01 -2.8200910222090442e+01 -2.8259313158689491e+01 0 0.0000000000000000e+00 1.1644018961584903e-02 5.3583788730461224e-01 7.5982069275270250e-02 5.0000000000000000e+00 5.8320000000000005e-01 1 2 0
4179 1 -1.7529088741399377e+01 -3.1868973002944077e+01 -3.2336370592383524e+01 0 0.0000000000000000e+00 -1.0998728733826967e-01 6.6777218408366305e-03 -5.2999449615537086e-01 5.0000000000000000e+00 5.8320000000000005e-01 1 -2 0
3809 1 -1.3561223518358329e+01 -3.0934797631984527e+01 -2.8122172711544579e+01 0 0.0000000000000000e+00 -2.0142558292490470e-01 2.0705237328671955e-01 4.5780732940801550e-01 5.0000000000000000e+00 5.8320000000000005e-01 0 -3 0
1972 1 -1.3815661121618106e+01 -2.9272297356642589e+01 -3.0976966180551027e+01 0 0.0000000000000000e+00 -3.3994129730798885e-02 -2.2155141126051023e-01 4.9274123169501644e-01 5.0000000000000000e+00 5.8320000000000005e-01 1 0 1
6030 1 -1.3639557790537527e+01 -3.3447376754546724e+01 -2.9896187933476391e+01 0 0.0000000000000000e+00 4.9581168471315767e-01 1.7614045265947811e-01 -1.2719042549977769e-01 5.0000000000000000e+00 5.8320000000000005e-01 -1 3 1
3460 1 -1.9469211459327553e+01 -2.6347435530514559e+01 -2.9803849648712180e+01 0 0.0000000000000000e+00 -3.1417146152063244e-02 -4.2075739990626443e-01 3.3913092361472985e-01 5.0000000000000000e+00 5.8320000000000005e-01 3 -1 1
3582 1 -1.4430909265073126e+01 -2.7731065244799325e+01 -3.3168379169227954e+01 0 0.0000000000000000e+00 1.7824708041989079e-01 -1.4513078470496846e-01 4.9010022633406847e-01 5.0000000000000000e+00 5.8320000000000005e-01 4 5 1
1748 1 -2.0065132703369990e+01 -2.7383097318303452e+01 -3.2857995086515331e+01 0 0.0000000000000000e+00 1.9851011428604109e-01 2.4119816940347952e-01 -4.4209572278246834e-01 5.0000000000000000e+00 5.8320000000000005e-01 2 -2 1
5352 1 -1.4524346881922074e+01 -3.1385726176959206e+01 -3.3129045014079750e+01 0 0.0000000000000000e+00 2.0238871873944361e-01 4.3243721491297704e-01 2.5507613644814753e-01 5.0000000000000000e+00 5.8320000000000005e-01 4 4 0
2053 1 -1.3411516692783863e+01 -3.3018109238664167e+01 -2.5326011547119176e+01 0 0.0000000000000000e+00 4.8688131679759039e-01 1.7234512701936228e-01 -1.6210778095490719e-01 5.0000000000000000e+00 5.8320000000000005e-01 -7 -1 1
2269 1 -8.2412759643284623e+00 -2.6572488826698901e+01 -3.1667047483461793e+01 0 0.0000000000000000e+00 -2.5308274345440879e-01 3.7909931238664030e-01 2.9201656393699044e-01 5.0000000000000000e+00 5.8320000000000005e-01 1 3 1
4695 1 -8.7194339049643688e+00 -2.7250008730920069e+01 -2.8519767285270294e+01 0 0.0000000000000000e+00 -4.0911806510102311e-01 3.0939412036035872e-02 -3.5311975446137184e-01 5.0000000000000000e+00 5.8320000000000005e-01 -3 -1 0
6109 1 -8.0493851758163864e+00 -3.0903270919927323e+01 -2.7685837779657120e+01 0 0.0000000000000000e+00 1.5268551756564988e-01 2.9548244279213548e-01 -4.2710146537714183e-01 5.0000000000000000e+00 5.8320000000000005e-01 -1 0 1
6594 1 -1.1564184117987885e+01 -2.8570532944431488e+01 -2.7135239930009956e+01 0 0.0000000000000000e+00 -2.2610022498804583e-01 1.7391328308194834e-01 4.6006569436115657e-01 5.0000000000000000e+00 5.8320000000000005e-01 1 0 0
5376 1 -1.1267438256790967e+01 -2.7088507237070964e+01 -3.0526264967231622e+01 0 0.0000000000000000e+00 -1.7028387844932810e-01 -1.4735299979561492e-01 -4.9227048681744884e-01 5.0000000000000000e+00 5.8320000000000005e-01 0 0 0
3125 1 -8.6733023103086424e+00 -3.2789275064843352e+01 -3.0658807392545732e+01 0 0.0000000000000000e+00 4.4689748902852422e-01 -3.0538162430481380e-01 -7.5539153393155371e-03 5.0000000000000000e+00 5.8320000000000005e-01 0 -5 1
4625 1 -8.4823446400062963e+00 -2.9886215882429525e+01 -3.1694833127668808e+01 0 0.0000000000000000e+00 9.3418251461565693e-03 3.6462413322157783e-01 3.9999607332491610e-01 5.0000000000000000e+00 5.8320000000000005e-01 0 -2 -1
4895 1 -1.1700488652653732e+01 -3.1776334121133161e+01 -3.1243646705525521e+01 0 0.0000000000000000e+00 5.3362684839623009e-01 7.7346541423719495e-02 -4.7845294444657099e-02 5.0000000000000000e+00 5.8320000000000005e-01 -1 -3 0
2877 1 -9.5864407398443241e+00 -2.6604782217437212e+01 -2.5246894608614930e+01 0 0.0000000000000000e+00 1.5668515921353049e-01 4.1683322590690458e-01 -3.0779643347880753e-01 5.0000000000000000e+00 5.8320000000000005e-01 3 3 1
3754 1 -1.0349295188060285e+01 -2.9663451715483106e+01 -2.9290753003049481e+01 0 0.0000000000000000e+00 -3.9140909826580189e-01 5.1447185395779395e-02 3.7039266543710625e-01 5.0000000000000000e+00 5.8320000000000005e-01 1 -2 0
5289 1 -1.1469850508691223e+01 -2.8441707024675217e+01 -3.3249375641160867e+01 0 0.0000000000000000e+00 2.9387955675741737e-02 -2.2505478015522401e-01 -4.9145137205066830e-01 5.0000000000000000e+00 5.8320000000000005e-01 -2 -1 0
5641 1 -1.0106670793805144e+01 -3.0314505873538177e+01 -2.5255807963774799e+01 0 0.0000000000000000e+00 1.7729568412379970e-01 -1.3373519420857041e-01 -4.9367086932598103e-01 5.0000000000000000e+00 5.8320000000000005e-01 2 10 0
3318 1 -1.0648920962679984e+01 -3.2816824993156914e+01 -2.7453858422383760e+01 0 0.0000000000000000e+00 7.3841845335462522e-02 -3.0155864860627041e-01 -4.4344212951434098e-01 5.0000000000000000e+00 5.8320000000000005e-01 8 -3 1
4186 1 -5.4354431903283640e+00 -3.1210229368162079e+01 -3.2670396838575734e+01 0 0.0000000000000000e+00 -3.7043832696331147e-01 -9.8162077317816412e-02 -3.8233131743721149e-01 5.0000000000000000e+00 5.8320000000000005e-01 -1 -2 0
2027 1 -6.3249654422650110e+00 -2.9425174299261624e+01 -2.9699856517140212e+01 0 0.0000000000000000e+00 5.2825610534568668e-01 9.3733787441380667e-02 -7.2049368886207971e-02 5.0000000000000000e+00 5.8320000000000005e-01 3 3 1
2917 1 -4.9990704294366672e+00 -2.8100066088834197e+01 -3.2216632874144892e+01 0 0.0000000000000000e+00 1.6213161216418945e-01 -2.5203292602181737e-01 -4.5081032013244993e-01 5.0000000000000000e+00 5.8320000000000005e-01 4 2 1
6294 1 -1.9907357229165079e+00 -3.0942448566299170e+01 -3.0049957207120592e+01 0 0.0000000000000000e+00 -2.6931602479233402e-01 3.5525008029147148e-01 3.0708025065601013e-01 5.0000000000000000e+00 5.8320000000000005e-01 -5 -3 0
3333 1 -6.6375626255005358e+00 -2.7866492360116720e+01 -2.6681261811106097e+01 0 0.0000000000000000e+00 -3.2726796321296386e-01 3.2577738962682001e-01 -2.8248441667174007e-01 5.0000000000000000e+00 5.8320000000000005e-01 3 -3 1
3663 1 -4.0292878724002605e+00 -2.9726257363800435e+01 -2.7638308765135648e+01 0 0.0000000000000000e+00 -1.2517889408237326e-01 -3.8293188571258591e-01 3.6155817993915867e-01 5.0000000000000000e+00 5.8320000000000005e-01 0 2 1
5267 1 -5.5578495282333904e+00 -2.6399710269176374e+01 -2.9969498341394779e+01 0 0.0000000000000000e+00 -1.9537676155981726e-01 -2.8076160347773549e-01 -4.1956255606882881e-01 5.0000000000000000e+00 5.8320000000000005e-01 9 3 0
6435 1 -6.9045135587946049e-01 -3.0909903095966719e+01 -2.6852064470932099e+01 0 0.0000000000000000e+00 3.6548950995687801e-01 3.9843194900089474e-01 2.6464217857884324e-02 5.0000000000000000e+00 5.8320000000000005e-01 -6 2 0
2824 1 -1.4784677307124312e+00 -2.6959438467415136e+01 -2.9652849503520752e+01 0 0.0000000000000000e+00 2.1103799831262333e-02 9.7571783001131562e-02 5.3204096411334900e-01 5.0000000000000000e+00 5.8320000000000005e-01 -3 0 1
2739 1 -2.0154172230289191e-01 -2.7641298558531375e+01 -2.6985643603073811e+01 0 0.0000000000000000e+00 3.5780579321153116e-01 -2.8542594939014856e-02 4.0521418894013850e-01 5.0000000000000000e+00 5.8320000000000005e-01 -1 -2 1
4199 1 -3.5824447878715659e-01 -3.0978039352261312e+01 -3.2483670094818891e+01 0 0.0000000000000000e+00 -1.7490388566610918e-01 1.1872469880354879e-01 4.9835067941450945e-01 5.0000000000000000e+00 5.8320000000000005e-01 4 4 0
2418 1 -2.8896239046945240e+00 -3.2905331082762210e+01 -3.2097954757964438e+01 0 0.0000000000000000e+00 -2.1807514250107993e-01 4.6110543527966136e-01 1.8125657499436459e-01 5.0000000000000000e+00 5.8320000000000005e-01 7 4 1
2769 1 -3.8252257111072581e+00 -2.6199274831907495e+01 -2.7457394002437649e+01 0 0.0000000000000000e+00 -2.3015417586201584e-01 -1.6491394435844095e-01 -4.6137708882151629e-01 5.0000000000000000e+00 5.8320000000000005e-01 -2 5 1
1668 1 -5.1253476606153008e+00 -3.1924577915794931e+01 -2.6537565033061995e+01 0 0.0000000000000000e+00 -2.4413964571882044e-01 -4.6602694658457211e-01 1.2745350542589695e-01 5.0000000000000000e+00 5.8320000000000005e-01 -3 -1 1
5084 1 -3.3787343104239866e+00 -3.3219509294931960e+01 -2.8713542091556334e+01 0 0.0000000000000000e+00 4.4433578564596315e-01 4.0709365091412396e-02 3.0650663579805054e-01 5.0000000000000000e+00 5.8320000000000005e-01 0 -1 0
3742 1 -3.5885358745573370e-01 -2.7847520146954913e+01 -3.2388024325093077e+01 0 0.0000000000000000e+00 1.8084697467159513e-01 4.8832497952177456e-01 -1.4786267929125949e-01 5.0000000000000000e+00 5.8320000000000005e-01 1 -3 0
5874 1 -3.1491593532352603e+01 -2.3268521033345934e+01 -2.7766944058201471e+01 0 0.0000000000000000e+00 7.5111542495917727e-02 -4.9527457714390599e-01 2.0517730458997915e-01 5.0000000000000000e+00 5.8320000000000005e-01 0 3 1
3499 1 -2.8066345140949821e+01 -2.5643914945120464e+01 -2.8759423378436068e+01 0 0.0000000000000000e+00 -5.3653919814818951e-01 2.7962828992399456e-02 -6.6135669235593025e-02 5.0000000000000000e+00 5.8320000000000005e-01 1 2 1
5745 1 -3.1926399038577724e+01 -2.6083490863904530e+01 -2.7263703021517038e+01 0 0.0000000000000000e+00 2.2837516715738440e-01 -4.4718540170538457e-01 -2.0225048189665823e-01 5.0000000000000000e+00 5.8320000000000005e-01 0 -2 1
4793 1 -2.9089610537492995e+01 -1.9436499736067802e+01 -2.7565740013207794e+01 0 0.0000000000000000e+00 -1.2154245285003529e-01 -5.4605998556209998e-02 5.2466712158937134e-01 5.0000000000000000e+00 5.8320000000000005e-01 6 -3 0
1862 1 -2.9677704553321888e+01 -2.0344339870211535e+01 -3.0612027213025854e+01 0 0.0000000000000000e+00 4.7084635580496187e-01 1.4182693645612390e-01 2.2631059789735394e-01 5.0000000000000000e+00 5.8320000000000005e-01 2 -4 1
1882 1 -2.9963915293582048e+01 -2.3690907593960723e+01 -3.0448671302057342e+01 0 0.0000000000000000e+00 -6.8367360215728840e-02 5.2619251566756198e-01 1.0714602891649916e-01 5.0000000000000000e+00 5.8320000000000005e-01 3 -3 1
2804 1 -2.8004084102813643e+01 -2.2398758048814646e+01 -2.8929992719796076e+01 0 0.0000000000000000e+00 3.9412324485353661e-01 1.1954482054864900e-01 3.5129219183766458e-01 5.0000000000000000e+00 5.8320000000000005e-01 -1 2 1
2880 1 -2.9153253517376413e+01 -2.2334840450286421e+01 -3.3407362126366429e+01 0 0.0000000000000000e+00 -5.1144991700798714e-01 1.4052939405512574e-01 -1.0819147424368643e-01 5.0000000000000000e+00 5.8320000000000005e-01 0 -4 1
2602 1 -3.2525705811927892e+01 -2.0412240684112611e+01 -2.8109915441617314e+01 0 0.0000000000000000e+00 2.0846239786508117e-01 -4.9616958817638890e-01 5.8236241681734024e-02 5.0000000000000000e+00 5.8320000000000005e-01 -5 -1 1
3722 1 -3.3263105808574011e+01 -2.4690064363690631e+01 -3.0733649855786872e+01 0 0.0000000000000000e+00 3.9176068304518452e-01 3.7346882202385367e-01 9.0305590129057135e-03 5.0000000000000000e+00 5.8320000000000005e-01 3 1 0
3814 1 -3.2097457708728399e+01 -2.1949620788507488e+01 -3.1034384063373217e+01 0 0.0000000000000000e+00 -1.4506065041032084e-02 5.3931866804864415e-01 -4.4266313052496092e-02 5.0000000000000000e+00 5.8320000000000005e-01 1 1 0
6466 1 -2.9239335281651208e+01 -2.4628421702509435e+01 -2.6174976729808947e+01 0 0.0000000000000000e+00 1.9891974863128939e-01 3.3632617269344955e-01 3.7463712371552355e-01 5.0000000000000000e+00 5.8320000000000005e-01 0 2 0
2646 1 -3.0922313653642924e+01 -2.6062672705782500e+01 -3.2196528878314304e+01 0 0.0000000000000000e+00 1.5836284597747041e-01 -2.1791090524982046e-02 5.1718626856061056e-01 5.0000000000000000e+00 5.8320000000000005e-01 9 1 1
4072 1 -2.6992686576924253e+01 -2.4214873076591036e+01 -3.1501198822157281e+01 0 0.0000000000000000e+00 -4.2061427061959128e-01 -3.3620272551912272e-01 -5.5531634269689954e-02 5.0000000000000000e+00 5.8320000000000005e-01 0 -2 1
2141 1 -2.4042399580502085e+01 -2.4316505351865452e+01 -2.9662955212859611e+01 0 0.0000000000000000e+00 -3.1387513855954835e-01 4.1287602495855047e-01 -1.5509073572799451e-01 5.0000000000000000e+00 5.8320000000000005e-01 -2 2 1
2068 1 -2.1643079677383618e+01 -2.4757568342919583e+01 -2.8304604562678687e+01 0 0.0000000000000000e+00 -3.7404576351875651e-01 7.0542398290506278e-02 -3.8489995756961842e-01 5.0000000000000000e+00 5.8320000000000005e-01 4 -4 1
4668 1 -2.4074382145946949e+01 -1.9608085868691013e+01 -3.3489590033898978e+01 0 0.0000000000000000e+00 -4.3336168235482464e-01 1.0002241323131872e-02 -3.2424265918461415e-01 5.0000000000000000e+00 5.8320000000000005e-01 -1 8 0
6734 1 -2.4647544087701192e+01 -2.1746971934234864e+01 -3.1064934938691298e+01 0 0.0000000000000000e+00 -2.2441343828821722e-01 4.8325623799694208e-03 -4.9259663423180655e-01 5.0000000000000000e+00 5.8320000000000005e-01 4 -1 0
3489 1 -2.2165262195942368e+01 -2.0669266459331723e+01 -2.9931944676254339e+01 0 0.0000000000000000e+00 -4.7129786783265942e-01 -2.8137226836169676e-02 -2.6479901461742461e-01 5.0000000000000000e+00 5.8320000000000005e-01 0 -1 1
5490 1 -2.6809764962092483e+01 -1.9656904003923447e+01 -3.0559007290909712e+01 0 0.0000000000000000e+00 3.1164221782303636e-01 -1.6509056091982310e-01 4.1068072229594282e-01 5.0000000000000000e+00 5.8320000000000005e-01 6 0 0
5208 1 -2.5295402791306717e+01 -2.0914997286417048e+01 -2.8244753443167770e+01 0 0.0000000000000000e+00 2.6156924919346386e-01 -3.8468176279495064e-01 2.7682261856527707e-01 5.0000000000000000e+00 5.8320000000000005e-01 -1 1 0
3612 1 -2.3254468145750963e+01 -2.2571070588774710e+01 -2.6324543769118456e+01 0 0.0000000000000000e+00 4.3802230682622523e-01 -2.1172613576569199e-01 2.3736622412710676e-01 5.0000000000000000e+00 5.8320000000000005e-01 5 2 1
3145 1 -2.2822986355360232e+01 -2.2576981309018020e+01 -3.3417682510543386e+01 0 0.0000000000000000e+00 4.7479266158877037e-01 2.2494731203007623e-01 -1.3039819366806735e-01 5.0000000000000000e+00 5.8320000000000005e-01 -4 0 1
2617 1 -2.0788427648017077e+01 -2.3145737242424566e+01 -3.1324418191204654e+01 0 0.0000000000000000e+00 4.0799802898863985e-01 9.8617426872795538e-02 3.4183271355792416e-01 5.0000000000000000e+00 5.8320000000000005e-01 3 0 1
5396 1 -2.5991099874618811e+01 -2.3715786820765803e+01 -2.7230665221219986e+01 0 0.0000000000000000e+00 2.2730947060412590e-01 -4.3587672875712080e-01 2.2666290477637346e-01 5.0000000000000000e+00 5.8320000000000005e-01 3 -2 0
4934 1 -1.5808862122523756e+01 -2.6145896194507895e+01 -2.6143992413118649e+01 0 0.0000000000000000e+00 -5.8406014866681352e-04 2.2682540265238413e-01 4.9151244062111654e-01 5.0000000000000000e+00 5.8320000000000005e-01 2 2 0
3544 1 -1.9649414084203663e+01 -1.9548741236998531e+01 -3.1991511106932595e+01 0 0.0000000000000000e+00 -3.9620430765196069e-01 6.6186640783175058e-02 3.6286470120400161e-01 5.0000000000000000e+00 5.8320000000000005e-01 5 1 1
3080 1 -2.0148148010451390e+01 -2.1356059546010421e+01 -2.7746027965524565e+01 0 0.0000000000000000e+00 -4.0266274080962794e-01 1.8977140026604639e-01 -3.0802926371489847e-01 5.0000000000000000e+00 5.8320000000000005e-01 3 -6 1
6304 1 -1.8962564077129151e+01 -2.4812839258872799e+01 -2.6169781671413737e+01 0 0.0000000000000000e+00 -2.0382485433530392e-01 -6.4341548494549075e-03 -5.0144782710324454e-01 5.0000000000000000e+00 5.8320000000000005e-01 2 -5 0
6185 1 -1.8108070554264568e+01 -2.0884676618833090e+01 -2.5355419467039688e+01 0 0.0000000000000000e+00 -1.1349130106078477e-01 -3.2063713112316794e-01 -4.2112462956782121e-01 5.0000000000000000e+00 5.8320000000000005e-01 6 -3 1
2677 1 -1.4835466728897167e+01 -2.2945750304835300e+01 -3.1877179103147903e+01 0 0.0000000000000000e+00 2.3339466682186644e-02 5.0889702993698915e-01 -1.8305581858084230e-01 5.0000000000000000e+00 5.8320000000000005e-01 0 3 1
6699 1 -1.6630623783079130e+01 -2.4964831608208996e+01 -2.8719960579600016e+01 0 0.0000000000000000e+00 5.3902810289258696e-02 -3.0882409886148249e-01 4.4131410311173308e-01 5.0000000000000000e+00 5.8320000000000005e-01 -5 3 0
2647 1 -1.3812441268592885e+01 -2.1688934879603501e+01 -2.5361230049249166e+01 0 0.0000000000000000e+00 -1.4317718059056020e-01 -3.1515789629085006e-01 -4.1618073497419827e-01 5.0000000000000000e+00 5.8320000000000005e-01 -1 4 1
3651 1 -1.7151644690312317e+01 -1.9173405498377342e+01 -2.8945718599031679e+01 0 0.0000000000000000e+00 3.7785746967235961e-01 -2.5779552501818270e-01 2.8947628157312183e-01 5.0000000000000000e+00 5.8320000000000005e-01 5 3 1
6134 1 -1.4178685125938539e+01 -2.6011027452548994e+01 -3.0363195645852191e+01 0 0.0000000000000000e+00 -2.1355050069144227e-01 2.7577199812111952e-01 -4.1398063747803432e-01 5.0000000000000000e+00 5.8320000000000005e-01 3 3 1
5816 1 -1.5528254431446232e+01 -2.1585660874748669e+01 -2.8264076802019080e+01 0 0.0000000000000000e+00 5.4003059957361055e-01 3.1226546472803061e-02 -2.0516454848450265e-02 5.0000000000000000e+00 5.8320000000000005e-01 -2 3 1
3794 1 -1.8240144024335613e+01 -2.2727836576420266e+01 -2.9663724167074538e+01 0 0.0000000000000000e+00 3.5219813289471957e-01 -2.3555838577644458e-01 3.3689967019258005e-01 5.0000000000000000e+00 5.8320000000000005e-01 -3 -1 0
4260 1 -1.3943521160788769e+01 -1.9493421859462583e+01 -2.9734995803295657e+01 0 0.0000000000000000e+00 2.3333723340784987e-01 3.5709467382203708e-01 -3.3327661114081142e-01 5.0000000000000000e+00 5.8320000000000005e-01 5 0 0
1834 1 -1.6889216754402582e+01 -2.0862712212884887e+01 -3.2027616484182673e+01 0 0.0000000000000000e+00 -4.9977800904077935e-01 -8.8268781303067811e-02 1.8833111035223538e-01 5.0000000000000000e+00 5.8320000000000005e-01 2 0 1
4502 1 -1.7010010682124822e+01 -2.5840300568126015e+01 -3.1840807049554410e+01 0 0.0000000000000000e+00 -3.9873734856469256e-01 -1.7206494584682164e-01 3.2315996436800354e-01 5.0000000000000000e+00 5.8320000000000005e-01 -2 0 0
2663 1 -1.2515543997264519e+01 -2.1985708358345402e+01 -2.8449386423897611e+01 0 0.0000000000000000e+00 3.4364736925750206e-01 -2.0600325765295732e-01 -3.6400695218466289e-01 5.0000000000000000e+00 5.8320000000000005e-01 -2 -5 1
6301 1 -9.7206787838574513e+00 -2.3868034378170652e+01 -2.6931569598270400e+01 0 0.0000000000000000e+00 -1.3483612059056774e-01 5.2349915551186244e-01 2.8183435958960095e-02 5.0000000000000000e+00 5.8320000000000005e-01 3 1 0
2669 1 -1.0317542671102860e+01 -2.0995779255184480e+01 -2.6230521867451106e+01 0 0.0000000000000000e+00 -1.3463954044333007e-01 5.0928005517500696e-01 -1.2463416566155022e-01 5.0000000000000000e+00 5.8320000000000005e-01 6 0 1
6052 1 -1.2528022232333452e+01 -2.5354496103027707e+01 -2.7800787832515343e+01 0 0.0000000000000000e+00 -4.2305709662967698e-02 -8.7775898682759493e-02 -5.3248469362071482e-01 5.0000000000000000e+00 5.8320000000000005e-01 -3 0 1
2177 1 -8.1451201388026249e+00 -2.4238806760594223e+01 -2.9919338962253867e+01 0 0.0000000000000000e+00 3.2908965995486095e-01 2.8993940670584950e-01 3.1728060868867164e-01 5.0000000000000000e+00 5.8320000000000005e-01 5 0 1
5699 1 -8.8431163371089632e+00 -1.9721566628148260e+01 -2.9667067289492383e+01 0 0.0000000000000000e+00 -1.9988244605822525e-01 2.1445836073749033e-01 4.5506764185950332e-01 5.0000000000000000e+00 5.8320000000000005e-01 1 2 1
3314 1 -1.1237741300869370e+01 -2.3683352922771718e+01 -3.0304935781234285e+01 0 0.0000000000000000e+00 3.6879947649903000e-01 -1.4035601604439207e-01 -3.7056657673647225e-01 5.0000000000000000e+00 5.8320000000000005e-01 1 1 1
6064 1 -7.0347554493185207e+00 -2.0582225248089415e+01 -2.7234537266194145e+01 0 0.0000000000000000e+00 3.2853822859344156e-01 -3.3290192537812524e-01 2.7252548914224639e-01 5.0000000000000000e+00 5.8320000000000005e-01 -2 4 1
2705 1 -7.1832748355957712e+00 -1.9177310338140511e+01 -3.3116714211399653e+01 0 0.0000000000000000e+00 -1.9111423434522179e-01 4.8453454952147906e-01 -1.4743421126270861e-01 5.0000000000000000e+00 5.8320000000000005e-01 -1 4 1
3269 1 -7.1227670549410931e+00 -2.1557449829627014e+01 -3.1096496163770269e+01 0 0.0000000000000000e+00 -3.0179782510087485e-02 5.1212526585521323e-01 -1.7275551424012728e-01 5.0000000000000000e+00 5.8320000000000005e-01 2 -1 1
3047 1 -1.1669622123266922e+01 -1.9913518497226406e+01 -3.2095212550643140e+01 0 0.0000000000000000e+00 3.9896095324762609e-01 -2.9283158165036716e-01 -2.1934335793884885e-01 5.0000000000000000e+00 5.8320000000000005e-01 -1 1 1
3391 1 -1.1219949249050355e+01 -2.5058888070610024e+01 -3.2905664299934720e+01 0 0.0000000000000000e+00 -1.3862882457129222e-01 -3.4461642261126635e-01 -3.9376967793952206e-01 5.0000000000000000e+00 5.8320000000000005e-01 0 -1 1
6311 1 -7.5588527368118505e+00 -2.3680588387090989e+01 -3.3166541740182687e+01 0 0.0000000000000000e+00 5.2727675266515350e-01 -1.2141269119890997e-01 -1.6574489878383940e-02 5.0000000000000000e+00 5.8320000000000005e-01 4 5 0
1867 1 -9.6367348747882779e+00 -2.1855038501544939e+01 -3.3160475249034036e+01 0 0.0000000000000000e+00 3.5662751012372595e-01 -3.2643910268169624e-01 -2.4348411111060356e-01 5.0000000000000000e+00 5.8320000000000005e-01 3 3 1
4053 1 -7.4912265320998017e-01 -2.1752396151924039e+01 -3.2673211526959754e+01 0 0.0000000000000000e+00 -2.5945830631644995e-01 4.0046206541506102e-01 2.5563784157847719e-01 5.0000000000000000e+00 5.8320000000000005e-01 4 -6 0
6144 1 -6.6780531730936481e+00 -2.4124938781614585e+01 -2.7222663048081856e+01 0 0.0000000000000000e+00 -2.0483531860706856e-02 -2.1708199969792569e-01 4.9547001546981750e-01 5.0000000000000000e+00 5.8320000000000005e-01 6 7 1
4906 1 -2.9475978544998043e+00 -2.5757355797421518e+01 -3.2018982847729745e+01 0 0.0000000000000000e+00 3.0204250750104905e-01 -1.4637385815608350e-01 4.2471388264451809e-01 5.0000000000000000e+00 5.8320000000000005e-01 -1 3 0
3498 1 -3.4730994553940704e+00 -2.2085290780600623e+01 -2.6158822939169440e+01 0 0.0000000000000000e+00 -2.4156357989717747e-01 3.1933005250360691e-01 -3.6429161798661180e-01 5.0000000000000000e+00 5.8320000000000005e-01 1 3 1
4884 1 -1.8378364070030919e+00 -2.3895866221659972e+01 -2.8708897190798581e+01 0 0.0000000000000000e+00 -2.7472422158164983e-01 4.1796290034387751e-01 -2.0703700372757136e-01 5.0000000000000000e+00 5.8320000000000005e-01 3 0 0