LAMMPS data file via write_data, version 1 Feb 2014, timestep = 15054000

6912 atoms
6 atom types
1664 bonds
5 bond types
1920 angles
5 angle types

-3.3778477102604107e+01 3.3778477102604107e+01 xlo xhi
-3.3778477102604107e+01 3.3778477102604107e+01 ylo yhi
-3.4773494455254749e+01 3.4773494455254749e+01 zlo zhi

Masses

1 40
2 90
3 90
4 62
5 62
6 42

Bond Coeffs

1 1.506 4.77
2 1.506 4.41
3 1.506 4.14
4 1.506 4.095
5 1.506 4.05

Atoms

4825 1 -2.8755176252688575e+01 -2.8756343570547980e+01 -3.3535767928893016e+01 0 0.0000000000000000e+00 3.5100214921330897e-01 -4.9927942406450952e-02 -4.0906218282150719e-01 5.0000000000000000e+00 5.8320000000000005e-01 0 -3 0
4497 1 -3.3139648326629214e+01 -2.8090127179931009e+01 -2.9511796075445456e+01 0 0.0000000000000000e+00 -4.0856329518482354e-01 -4.7745215841111452e-02 -3.5189050952249973e-01 5.0000000000000000e+00 5.8320000000000005e-01 5 -6 -1
2807 1 -2.9339169920300293e+01 -3.2130133023691258e+01 -3.0015067191988425e+01 0 0.0000000000000000e+00 3.1625370576961109e-01 4.3910868141674214e-01 1.4310820781431777e-02 5.0000000000000000e+00 5.8320000000000005e-01 -6 1 1
6569 1 -3.0636738945895232e+01 -2.9565184057616840e+01 -2.8496064244536814e+01 0 0.0000000000000000e+00 -4.6282486791859540e-01 2.5275575052984972e-01 1.2221294984667976e-01 5.0000000000000000e+00 5.8320000000000005e-01 -1 2 0
4694 1 -2.8086850554071653e+01 -2.8222021314180040e+01 -2.6782599346074207e+01 0 0.0000000000000000e+00 2.8676942137070316e-01 2.1244069520771314e-01 4.0701537242022656e-01 5.0000000000000000e+00 5.8320000000000005e-01 0 4 0
2366 1 -3.0702337860775334e+01 -2.8152900673258099e+01 -3.1354479051625045e+01 0 0.0000000000000000e+00 4.7344369327899938e-01 1.4040338146703604e-01 -2.2175256608878918e-01 5.0000000000000000e+00 5.8320000000000005e-01 3 4 1
6112 1 -2.8068733285096858e+01 -2.8474078082323857e+01 -2.9938006646161963e+01 0 0.0000000000000000e+00 -3.2887521435476585e-01 2.7343804831421858e-03 4.2995770297376956e-01 5.0000000000000000e+00 5.8320000000000005e-01 -2 -1 0
2960 1 -2.8359096233961115e+01 -3.1873714212173962e+01 -3.2866762029377163e+01 0 0.0000000000000000e+00 -2.8634219649427356e-01 -3.8347534631874025e-01 -2.5295623074468271e-01 5.0000000000000000e+00 5.8320000000000005e-01 4 -1 1
6605 1 -3.3223863088624697e+01 -2.6990171763228773e+01 -2.6671062249673792e+01 0 0.0000000000000000e+00 3.7974979071083276e-01 1.1524573098012171e-01 -3.6815797118347998e-01 5.0000000000000000e+00 5.8320000000000005e-01 2 1 0
4535 1 -3.2739477879574160e+01 -3.1907149387425306e+01 -2.6839427884685275e+01 0 0.0000000000000000e+00 4.1792507442704280e-01 -3.0677817934337479e-02 3.4267979813805532e-01 5.0000000000000000e+00 5.8320000000000005e-01 1 2 0
5228 1 -3.2540691628634740e+01 -2.9221381645699537e+01 -3.3966043785367518e+01 0 0.0000000000000000e+00 -7.8141194016301818e-03 -4.7498434700633285e-01 2.5954913626699777e-01 5.0000000000000000e+00 5.8320000000000005e-01 0 -4 1
6300 1 -2.8723842849088410e+01 -3.2068982239157265e+01 -2.6498193392736937e+01 0 0.0000000000000000e+00 -3.3076524968178217e-01 5.2963820074167578e-03 4.2848729554162956e-01 5.0000000000000000e+00 5.8320000000000005e-01 -5 1 0
3853 1 -3.1880750781162352e+01 -3.1567300155547599e+01 -3.2275392870901875e+01 0 0.0000000000000000e+00 2.7039382327348456e-03 -3.0931633457361418e-01 4.4423943440894303e-01 5.0000000000000000e+00 5.8320000000000005e-01 -2 -2 0
6343 1 -2.6601928324475569e+01 -3.0669243909794034e+01 -2.7929240936934733e+01 0 0.0000000000000000e+00 -3.9549236166670393e-01 6.6724851288808465e-02 3.6354425354250813e-01 5.0000000000000000e+00 5.8320000000000005e-01 -4 1 0
4750 1 -2.3251446317220907e+01 -2.6388677763963361e+01 -3.3802545197263562e+01 0 0.0000000000000000e+00 -1.3131884891515744e-01 2.6370652008067874e-01 -4.5415099106633761e-01 5.0000000000000000e+00 5.8320000000000005e-01 -7 -4 0
2649 1 -2.1769674373317155e+01 -2.9577420482247053e+01 -2.9598663996684881e+01 0 0.0000000000000000e+00 3.1977765692263377e-01 3.0888155896146752e-01 -3.0881543349807467e-01 5.0000000000000000e+00 5.8320000000000005e-01 1 4 1
2031 1 -2.4667699450539850e+01 -2.8625766981323316e+01 -2.9097075398581413e+01 0 0.0000000000000000e+00 -2.8289570025733807e-01 -4.1341320404672638e-01 -2.0516272979206088e-01 5.0000000000000000e+00 5.8320000000000005e-01 -1 2 1
4917 1 -2.2867895138580813e+01 -2.9293183441602835e+01 -3.3049333272454341e+01 0 0.0000000000000000e+00 9.7144103511516117e-02 3.8112528380782446e-01 3.7194133474964719e-01 5.0000000000000000e+00 5.8320000000000005e-01 5 3 0
3758 1 -2.1672931027153567e+01 -2.6891709522616544e+01 -3.1183082625333608e+01 0 0.0000000000000000e+00 -1.4624103536560090e-01 4.8361124632335167e-01 -1.9434269861451312e-01 5.0000000000000000e+00 5.8320000000000005e-01 3 -4 0
6405 1 -2.2430638371528055e+01 -3.2332533099554290e+01 -3.1355143695089229e+01 0 0.0000000000000000e+00 4.8142615199904532e-01 -1.7639247740176917e-02 -2.4687777929686763e-01 5.0000000000000000e+00 5.8320000000000005e-01 -2 -1 0
4716 1 -2.2712164043551432e+01 -3.3022235321680199e+01 -3.4343040787791992e+01 0 0.0000000000000000e+00 -4.6040780503664608e-01 2.1205513646197949e-01 -1.8998512115802368e-01 5.0000000000000000e+00 5.8320000000000005e-01 3 2 0
6680 1 -2.2979176522273264e+01 -2.6678396308439979e+01 -2.8096527623370868e+01 0 0.0000000000000000e+00 -2.7149589949160319e-01 -4.1868711411263648e-01 -2.0982703623527033e-01 5.0000000000000000e+00 5.8320000000000005e-01 -3 2 0
5813 1 -2.5380365412471200e+01 -3.0625665079953382e+01 -3.1415625860486990e+01 0 0.0000000000000000e+00 -1.6344804711655467e-01 -5.0460365413304964e-01 -1.0811252762449901e-01 5.0000000000000000e+00 5.8320000000000005e-01 1 3 1
6616 1 -2.1156639070709431e+01 -3.2431125197391893e+01 -2.8279915410747478e+01 0 0.0000000000000000e+00 -2.1552166516363264e-01 4.6518485538270787e-01 -1.7375036969072610e-01 5.0000000000000000e+00 5.8320000000000005e-01 2 3 0
4781 1 -2.4078186931407295e+01 -3.2836260661965085e+01 -2.8658834348210966e+01 0 0.0000000000000000e+00 -3.7191549669964513e-01 2.0699870927162481e-01 -3.3445979784502888e-01 5.0000000000000000e+00 5.8320000000000005e-01 -4 0 0
3935 1 -1.9267225270649682e+01 -2.8778900456634201e+01 -3.2479257150712122e+01 0 0.0000000000000000e+00 1.3191473360583364e-01 -3.8940506568932193e-01 3.5212788752553636e-01 5.0000000000000000e+00 5.8320000000000005e-01 1 -2 0
5706 1 -1.9624642378204861e+01 -3.1808118223231993e+01 -3.1887378485809478e+01 0 0.0000000000000000e+00 2.7690661564676444e-01 -4.6236641152724622e-01 5.0730447489375059e-02 5.0000000000000000e+00 5.8320000000000005e-01 1 5 1
5009 1 -1.8986312042731189e+01 -3.0335229092193632e+01 -2.8987864147005585e+01 0 0.0000000000000000e+00 3.6467543273106395e-01 -3.1418892611334220e-01 2.4765603560211522e-01 5.0000000000000000e+00 5.8320000000000005e-01 -5 -3 0
3166 1 -1.4973935788817169e+01 -3.2429523006271651e+01 -3.1387013437957158e+01 0 0.0000000000000000e+00 2.4906339981373364e-02 4.5966087259821115e-01 2.8482363197421551e-01 5.0000000000000000e+00 5.8320000000000005e-01 3 0 1
4574 1 -1.4969562368404578e+01 -3.1473694366673968e+01 -2.8159975370872974e+01 0 0.0000000000000000e+00 -2.8172415220420988e-01 4.5406677820886138e-01 -8.6560494406189750e-02 5.0000000000000000e+00 5.8320000000000005e-01 1 4 0
6545 1 -1.6314376684869973e+01 -2.9232620267803682e+01 -2.9813476080110178e+01 0 0.0000000000000000e+00 -2.6922023714121845e-02 5.4065225987107568e-01 1.1106500353680024e-04 5.0000000000000000e+00 5.8320000000000005e-01 4 -2 0
2341 1 -1.6832593343334157e+01 -2.6322846384693619e+01 -3.2386550312170883e+01 0 0.0000000000000000e+00 -2.4929899046683274e-02 -5.0440814903216358e-01 -1.9489116943429974e-01 5.0000000000000000e+00 5.8320000000000005e-01 4 0 1
5705 1 -1.3980044647040291e+01 -2.7799079137693631e+01 -2.8084815722894284e+01 0 0.0000000000000000e+00 1.2376339105443290e-01 -9.4968210547224444e-02 5.1835759762944111e-01 5.0000000000000000e+00 5.8320000000000005e-01 -2 1 1
6869 1 -1.5818997173293891e+01 -2.8871539518463280e+01 -3.3034473427487157e+01 0 0.0000000000000000e+00 6.9311773169862936e-02 -5.1602706917282315e-01 -1.4813182298532568e-01 5.0000000000000000e+00 5.8320000000000005e-01 0 1 0
4270 1 -1.8317773813839231e+01 -2.7090197910190934e+01 -2.9537251232654203e+01 0 0.0000000000000000e+00 -4.0015202801744942e-01 3.5534124419379959e-01 -8.1512628765884609e-02 5.0000000000000000e+00 5.8320000000000005e-01 2 1 0
6149 1 -1.3886928094421275e+01 -2.6665323452487947e+01 -3.0762838628407486e+01 0 0.0000000000000000e+00 -6.4141105990379223e-03 -5.0877553221438276e-02 5.3889248636757126e-01 5.0000000000000000e+00 5.8320000000000005e-01 2 0 0
4795 1 -1.7057058933169969e+01 -3.1739143447977000e+01 -3.3676374609649876e+01 0 0.0000000000000000e+00 -2.6547194344929725e-01 -3.7893219073621653e-01 -2.8102026237462774e-01 5.0000000000000000e+00 5.8320000000000005e-01 6 5 0
4013 1 -1.3836954213270658e+01 -2.6269820896238713e+01 -3.3423276168349894e+01 0 0.0000000000000000e+00 -3.6166803168978370e-02 -3.3066270033070827e-01 4.2706105284671020e-01 5.0000000000000000e+00 5.8320000000000005e-01 1 0 0
2470 1 -1.8400611680692784e+01 -3.3461894099509593e+01 -2.9823968572944416e+01 0 0.0000000000000000e+00 -1.9293418013929980e-01 -4.8878794551122162e-01 1.2998590099274349e-01 5.0000000000000000e+00 5.8320000000000005e-01 0 1 2
6715 1 -1.6719037216185384e+01 -2.9242596028043636e+01 -2.6768140805102984e+01 0 0.0000000000000000e+00 -9.1275110934227969e-03 5.0152489065468175e-01 2.0352960889032595e-01 5.0000000000000000e+00 5.8320000000000005e-01 -5 0 0
5654 1 -2.0174228559358767e+01 -2.7670648372785681e+01 -2.6479284697623832e+01 0 0.0000000000000000e+00 -3.6477873014599344e-01 -2.7322264997484447e-01 -2.9209358256182227e-01 5.0000000000000000e+00 5.8320000000000005e-01 3 3 1
5288 1 -1.0518691696641483e+01 -2.9093478972724881e+01 -2.6289759251707295e+01 0 0.0000000000000000e+00 -3.7405997347402431e-01 -3.8694763813083921e-01 5.8154319612367111e-02 5.0000000000000000e+00 5.8320000000000005e-01 1 2 1
4647 1 -7.8173639265769559e+00 -2.7756852287017203e+01 -3.2112314297810201e+01 0 0.0000000000000000e+00 -2.8888946478426256e-02 1.5679881728606521e-01 5.1730851430172475e-01 5.0000000000000000e+00 5.8320000000000005e-01 -4 -2 0
5511 1 -7.3522956924944722e+00 -3.2391951515070822e+01 -3.0655184665756174e+01 0 0.0000000000000000e+00 -3.8318689901510256e-01 1.4960194021653128e-01 -3.5188660461381455e-01 5.0000000000000000e+00 5.8320000000000005e-01 2 -3 1
4644 1 -9.5522656897510245e+00 -3.0731202132320732e+01 -3.1920285744060998e+01 0 0.0000000000000000e+00 -1.0796079739017628e-01 4.9034662831348047e-01 -2.0233143485004676e-01 5.0000000000000000e+00 5.8320000000000005e-01 3 -1 0
2535 1 -1.3161793589825354e+01 -2.9719594143504303e+01 -3.1562632632293859e+01 0 0.0000000000000000e+00 4.3676190004080012e-01 2.7540529454127038e-01 -1.6254105146511835e-01 5.0000000000000000e+00 5.8320000000000005e-01 -2 4 1
3610 1 -7.0322017428574668e+00 -2.7236099672525988e+01 -2.9293139688163627e+01 0 0.0000000000000000e+00 -1.7279938625025745e-01 -7.1247091553334613e-02 5.0803375277310570e-01 5.0000000000000000e+00 5.8320000000000005e-01 -2 0 0
3735 1 -1.1355867829399688e+01 -3.2778975554771030e+01 -3.0652690052035656e+01 0 0.0000000000000000e+00 2.3389347592217169e-01 3.3967644199085034e-01 3.5063157869404876e-01 5.0000000000000000e+00 5.8320000000000005e-01 1 0 0
3332 1 -9.8272329737628965e+00 -3.1089624144942725e+01 -2.8599817097037125e+01 0 0.0000000000000000e+00 4.2649077247766265e-01 3.1151456916994269e-01 1.1875828344276240e-01 5.0000000000000000e+00 5.8320000000000005e-01 1 0 1
6740 1 -7.4025633081316649e+00 -3.1941244039046957e+01 -2.7013774272791224e+01 0 0.0000000000000000e+00 -9.7153976197748404e-02 1.4446716401329696e-01 5.1256231185185919e-01 5.0000000000000000e+00 5.8320000000000005e-01 -8 1 0
5458 1 -7.0342934769692640e+00 -2.8534306555413487e+01 -2.6337909563026109e+01 0 0.0000000000000000e+00 5.0902235203220736e-01 1.5437056238718022e-01 1.0047702971259297e-01 5.0000000000000000e+00 5.8320000000000005e-01 1 -4 1
4196 1 -1.0056274543094723e+01 -2.7722395879935316e+01 -3.0207925695726832e+01 0 0.0000000000000000e+00 -2.1431337825509955e-01 3.8912782704055754e-01 3.0931804655335038e-01 5.0000000000000000e+00 5.8320000000000005e-01 3 4 0
4095 1 -9.3082991450679948e+00 -2.6311699426073030e+01 -2.7607479590838928e+01 0 0.0000000000000000e+00 5.1464359820521062e-02 3.8971677153560341e-02 5.3746027308825584e-01 5.0000000000000000e+00 5.8320000000000005e-01 -5 1 0
5784 1 -1.0736853590527613e+01 -3.3127844240904295e+01 -3.3823474897015359e+01 0 0.0000000000000000e+00 -5.1913921869481849e-01 -1.3029419149982382e-01 8.0958397799985926e-02 5.0000000000000000e+00 5.8320000000000005e-01 -4 -2 1
4945 1 -1.3292977729805891e+01 -3.0171862522411438e+01 -2.6255180834507392e+01 0 0.0000000000000000e+00 -2.7647481648931616e-01 -4.6414511661289343e-01 -3.4132469462411635e-02 5.0000000000000000e+00 5.8320000000000005e-01 3 2 0
3357 1 -1.3210355656346348e+01 -3.1449215669936624e+01 -3.4145073452455073e+01 0 0.0000000000000000e+00 -3.8609638341956043e-01 2.3369364095118994e-01 2.9892029487693234e-01 5.0000000000000000e+00 5.8320000000000005e-01 -1 -6 1
4692 1 -1.1348480951267941e+01 -2.8834685140191674e+01 -3.3848382644318171e+01 0 0.0000000000000000e+00 3.4263179013700512e-01 5.0080251517761007e-02 -4.1608483016739400e-01 5.0000000000000000e+00 5.8320000000000005e-01 -2 -1 0
3452 1 -1.1501096741535211e+01 -3.2894909411673090e+01 -2.7246675987083062e+01 0 0.0000000000000000e+00 2.9303116452209549e-01 -2.6755379512285304e-01 -3.6821379908170626e-01 5.0000000000000000e+00 5.8320000000000005e-01 2 -2 1
3295 1 -6.8606133591678038e+00 -2.6327707792822402e+01 -3.4623432511600484e+01 0 0.0000000000000000e+00 -3.4973965146977526e-01 -1.8188316707250138e-01 3.7099543855076811e-01 5.0000000000000000e+00 5.8320000000000005e-01 -1 1 1
4122 1 -5.5495370103211954e+00 -3.3481198288289562e+01 -2.8541150271699770e+01 0 0.0000000000000000e+00 -4.9680007254621034e-01 1.4209475268252170e-01 1.6134849202323917e-01 5.0000000000000000e+00 5.8320000000000005e-01 0 -1 0
6367 1 -5.0763243515474379e+00 -2.9931289460727736e+01 -3.1998330928075404e+01 0 0.0000000000000000e+00 -2.1513972951627111e-01 -4.9221426365115778e-01 -6.6844669510846208e-02 5.0000000000000000e+00 5.8320000000000005e-01 -5 0 0
5425 1 -4.5171754540085871e+00 -3.2770421529032873e+01 -3.1889043757826798e+01 0 0.0000000000000000e+00 1.6418645709649532e-01 -5.0993768308452869e-01 7.7687768512703384e-02 5.0000000000000000e+00 5.8320000000000005e-01 -3 -1 1
3036 1 -1.8404782270487914e+00 -2.8367658905705625e+01 -3.3296108004542326e+01 0 0.0000000000000000e+00 7.5970950346883309e-02 5.3184918431771067e-01 -6.6280821841444071e-02 5.0000000000000000e+00 5.8320000000000005e-01 1 0 1
2932 1 -4.9360604185295500e+00 -2.7085941553023041e+01 -3.1714651386580812e+01 0 0.0000000000000000e+00 -9.6775717277621756e-02 -5.1042637805146196e-01 -1.5210824348031882e-01 5.0000000000000000e+00 5.8320000000000005e-01 0 -3 1
4715 1 -5.8006772032958125e+00 -2.9989799407767386e+01 -2.8670381173540228e+01 0 0.0000000000000000e+00 -2.7078005468427335e-01 -4.5123355191469461e-01 -1.2690635883055870e-01 5.0000000000000000e+00 5.8320000000000005e-01 -3 -2 0
4866 1 -3.7882597283198400e+00 -2.7694519717341304e+01 -2.8630430357064945e+01 0 0.0000000000000000e+00 -3.7122788676271767e-01 -3.5093522064888816e-01 -1.7906592584241987e-01 5.0000000000000000e+00 5.8320000000000005e-01 0 5 0
6653 1 -2.3663134666963828e+00 -3.0236218038296439e+01 -3.0932275455434905e+01 0 0.0000000000000000e+00 7.1657516497678347e-02 1.3631137249165010e-01 -5.1895834202643620e-01 5.0000000000000000e+00 5.8320000000000005e-01 0 -1 0
4519 1 -4.8808449522584141e-01 -2.7389077351655235e+01 -3.0905630002071160e+01 0 0.0000000000000000e+00 -2.5804706255736248e-01 1.4311029843870307e-01 4.5383383675779626e-01 5.0000000000000000e+00 5.8320000000000005e-01 -4 -1 0
2373 1 -2.7926047523913695e+00 -3.2199593358228149e+01 -2.7505253319891942e+01 0 0.0000000000000000e+00 1.3134075131108233e-01 5.1693319120897932e-02 -5.2259588010556057e-01 5.0000000000000000e+00 5.8320000000000005e-01 1 -3 1
4994 1 -1.1349105594256059e+00 -2.6889121247758460e+01 -2.7680024054719283e+01 0 0.0000000000000000e+00 -4.4250881886454185e-01 -2.5730776832757191e-01 1.7610711991680705e-01 5.0000000000000000e+00 5.8320000000000005e-01 -6 0 0
5910 1 -2.4303436505898048e+00 -3.1469666703620007e+01 -3.4407422899295597e+01 0 0.0000000000000000e+00 -5.7307827863500284e-02 5.3757767893541852e-01 2.7508563684342058e-02 5.0000000000000000e+00 5.8320000000000005e-01 3 2 1
5289 1 -3.0868212314225488e+01 -2.6139606406894764e+01 -2.8233621081232602e+01 0 0.0000000000000000e+00 1.6187662089968860e-01 3.6384350762483558e-01 -3.6666715924030441e-01 5.0000000000000000e+00 5.8320000000000005e-01 0 6 1
6410 1 -2.8679521302504611e+01 -2.5936812655489174e+01 -3.4614278001971016e+01 0 0.0000000000000000e+00 1.6645721227364935e-01 5.1486676963317146e-01 -1.5284400857999840e-02 5.0000000000000000e+00 5.8320000000000005e-01 0 -1 0
5514 1 -2.9565591827307621e+01 -2.5070974162819045e+01 -3.0597432129464316e+01 0 0.0000000000000000e+00 2.9255101837808239e-01 2.4431163775689915e-01 -3.8439181039986875e-01 5.0000000000000000e+00 5.8320000000000005e-01 1 0 1
6463 1 -3.1859473811315226e+01 -1.9017487124922745e+01 -2.9700292736483249e+01 0 0.0000000000000000e+00 -4.1300177045876252e-01 -3.8614169929823555e-02 3.4780645706852298e-01 5.0000000000000000e+00 5.8320000000000005e-01 2 -3 0
2239 1 -2.9236821178655337e+01 -2.0936254998204703e+01 -2.8032963338018902e+01 0 0.0000000000000000e+00 -5.0620360014882881e-01 1.1391823086029740e-01 -1.5433271355751080e-01 5.0000000000000000e+00 5.8320000000000005e-01 1 4 1
3048 1 -3.3168178244849855e+01 -2.1915267509926259e+01 -3.2033484411757371e+01 0 0.0000000000000000e+00 -5.0887559808627825e-01 1.0438563437187535e-01 -1.5225635917462915e-01 5.0000000000000000e+00 5.8320000000000005e-01 4 -1 1
2670 1 -3.1106629583589463e+01 -2.3181605606159401e+01 -2.7110806306954650e+01 0 0.0000000000000000e+00 1.9035576944585755e-01 1.4805483733629191e-01 4.8463813322931948e-01 5.0000000000000000e+00 5.8320000000000005e-01 -4 2 1
4073 1 -2.8177365886829520e+01 -2.4062711402532859e+01 -2.7321007189976974e+01 0 0.0000000000000000e+00 -4.2823890454399957e-03 -3.1918086466902373e-01 -4.3718914221787109e-01 5.0000000000000000e+00 5.8320000000000005e-01 -2 1 0
5978 1 -3.1011821894072590e+01 -2.4047683879609835e+01 -3.3488850475446441e+01 0 0.0000000000000000e+00 -3.4163899287239191e-01 -3.4951019828887153e-01 -2.3271514248370559e-01 5.0000000000000000e+00 5.8320000000000005e-01 0 -3 1
3270 1 -3.1808459845379225e+01 -2.0163267211304817e+01 -2.6487011230642779e+01 0 0.0000000000000000e+00 2.1349932805506511e-01 -2.7124489692538722e-01 4.1699309264299789e-01 5.0000000000000000e+00 5.8320000000000005e-01 -3 2 1
5082 1 -3.0691764969656294e+01 -2.1578506257656230e+01 -3.0734617410207161e+01 0 0.0000000000000000e+00 -3.8781925024596720e-01 1.4446131766659753e-01 -3.4894622427630062e-01 5.0000000000000000e+00 5.8320000000000005e-01 2 2 0
3076 1 -2.7751994569520889e+01 -2.2657275670760129e+01 -3.1103533604804401e+01 0 0.0000000000000000e+00 -2.7669651242247328e-01 4.6464935772181237e-01 2.3939535959314882e-02 5.0000000000000000e+00 5.8320000000000005e-01 0 -1 1
6351 1 -3.0558225158862733e+01 -2.1047646595483954e+01 -3.3818550497154476e+01 0 0.0000000000000000e+00 -2.9591552354323137e-02 -5.1840763705873416e-01 -1.5299881950015518e-01 5.0000000000000000e+00 5.8320000000000005e-01 1 3 0
5405 1 -3.2482697174244777e+01 -2.5607720637614584e+01 -3.1265623555524027e+01 0 0.0000000000000000e+00 4.6904203234859032e-01 -2.1917549759351698e-01 -1.5809919052587867e-01 5.0000000000000000e+00 5.8320000000000005e-01 0 1 1
5240 1 -2.6821872637129871e+01 -2.6178916413843631e+01 -3.2044142997882787e+01 0 0.0000000000000000e+00 9.1746758720468405e-02 -5.0747209905670421e-01 1.6458235459268047e-01 5.0000000000000000e+00 5.8320000000000005e-01 2 3 1
3737 1 -2.4354468857698507e+01 -2.4609376385504429e+01 -3.0465920687393357e+01 0 0.0000000000000000e+00 3.2684030714491735e-01 3.4336775082827883e-02 -4.3014769603280145e-01 5.0000000000000000e+00 5.8320000000000005e-01 -2 0 0
5192 1 -2.4890743814610762e+01 -2.1646803410695476e+01 -3.1747596149452828e+01 0 0.0000000000000000e+00 -3.4147403015780708e-01 2.7576025223298328e-01 3.1683510745526039e-01 5.0000000000000000e+00 5.8320000000000005e-01 1 5 0
6309 1 -2.6320334252293303e+01 -2.6146805205965610e+01 -2.8679171038973635e+01 0 0.0000000000000000e+00 4.4046831448054063e-01 1.3857878472366364e-01 -2.8252227392399354e-01 5.0000000000000000e+00 5.8320000000000005e-01 -4 2 0
2188 1 -2.2189757125604807e+01 -2.3813182198217007e+01 -2.7914719928627150e+01 0 0.0000000000000000e+00 -1.8368140697029373e-01 -4.7277811136294884e-01 1.8913259330294294e-01 5.0000000000000000e+00 5.8320000000000005e-01 -3 2 1
3734 1 -2.0578179018093731e+01 -2.1752867089642688e+01 -3.3442270493692263e+01 0 0.0000000000000000e+00 3.2890036457898103e-01 3.0744073033930841e-01 -3.0057161876705202e-01 5.0000000000000000e+00 5.8320000000000005e-01 -3 0 0
6319 1 -2.2221604503178014e+01 -2.1403277154829318e+01 -2.9573676754591624e+01 0 0.0000000000000000e+00 1.2320538160759834e-01 -5.2609796488729577e-01 3.2812858521799763e-02 5.0000000000000000e+00 5.8320000000000005e-01 5 1 0
2127 1 -2.5552342725730540e+01 -1.8773299563866637e+01 -2.8680100550524010e+01 0 0.0000000000000000e+00 3.5844996545247781e-01 -3.9945139811584923e-01 -7.0635089795447539e-02 5.0000000000000000e+00 5.8320000000000005e-01 3 2 1
5302 1 -2.4117779728947063e+01 -2.0675638568243883e+01 -2.6128400326839618e+01 0 0.0000000000000000e+00 -5.4018674227075714e-01 1.5612187239820404e-02 3.1473075548718851e-02 5.0000000000000000e+00 5.8320000000000005e-01 2 1 1
2686 1 -2.6000370803873015e+01 -2.3635667807969480e+01 -3.3788751728085451e+01 0 0.0000000000000000e+00 -2.6833331808520122e-01 -2.3266913742955481e-01 4.0853652932531392e-01 5.0000000000000000e+00 5.8320000000000005e-01 -1 -2 1
2885 1 -2.1855964746680733e+01 -2.3895357128628103e+01 -3.1673617747933033e+01 0 0.0000000000000000e+00 3.6312565648176270e-01 2.0812576321991200e-01 -3.4329685243068864e-01 5.0000000000000000e+00 5.8320000000000005e-01 3 -1 1
4210 1 -2.6835871584093283e+01 -1.9582360540256325e+01 -3.1196177336931616e+01 0 0.0000000000000000e+00 -3.1564415480122460e-01 4.2534696938229005e-01 1.1174393575099191e-01 5.0000000000000000e+00 5.8320000000000005e-01 3 0 0
5018 1 -2.2653038850542558e+01 -1.9576643170694020e+01 -3.2358537079372759e+01 0 0.0000000000000000e+00 1.6798540242291202e-02 -4.3128102515537176e-01 3.2672634097461400e-01 5.0000000000000000e+00 5.8320000000000005e-01 -3 3 0
2541 1 -2.4987716075690710e+01 -2.4313210389522688e+01 -2.6409627499399456e+01 0 0.0000000000000000e+00 -4.3773794848994946e-01 2.5694618116511170e-01 1.8814727459220867e-01 5.0000000000000000e+00 5.8320000000000005e-01 -1 0 1
5226 1 -2.3746232156128887e+01 -2.1632579503267419e+01 -3.4385669558818087e+01 0 0.0000000000000000e+00 -2.7661666296801390e-01 -2.0311399937618294e-01 4.1863908564042618e-01 5.0000000000000000e+00 5.8320000000000005e-01 -2 -1 1
4887 1 -2.5721065730064979e+01 -2.2223994161103303e+01 -2.8648429835937407e+01 0 0.0000000000000000e+00 6.0113994714632371e-02 -5.2262600799415049e-01 -1.2762027741525753e-01 5.0000000000000000e+00 5.8320000000000005e-01 -4 5 0
4228 1 -1.8900961067645131e+01 -2.4333958860154979e+01 -3.0454805316996936e+01 0 0.0000000000000000e+00 -5.6666837573006348e-02 5.3441058474171754e-01 6.5025956628796358e-02 5.0000000000000000e+00 5.8320000000000005e-01 -1 0 0
3010 1 -1.9122170874949227e+01 -2.1525903382116205e+01 -3.0582970499183013e+01 0 0.0000000000000000e+00 -6.7277708515643533e-02 4.9710811536530819e-01 -2.0344587652453283e-01 5.0000000000000000e+00 5.8320000000000005e-01 -3 4 1
5314 1 -1.9590693484489421e+01 -1.8875129937554767e+01 -3.1619677157459531e+01 0 0.0000000000000000e+00 7.0151271386099737e-03 4.8758518811132096e-01 -2.3504353772370970e-01 5.0000000000000000e+00 5.8320000000000005e-01 0 -2 1
2855 1 -1.6061711059635677e+01 -2.3704035734497410e+01 -3.1224244813812181e+01 0 0.0000000000000000e+00 -2.9260322018112894e-01 -4.5524399905113716e-01 -1.2894939610635580e-02 5.0000000000000000e+00 5.8320000000000005e-01 0 -2 1
4324 1 -1.5358984081099123e+01 -2.1399660745843725e+01 -2.9554191891358002e+01 0 0.0000000000000000e+00 -2.8478809838787124e-02 -5.3954779937112557e-03 -5.4054987846394476e-01 5.0000000000000000e+00 5.8320000000000005e-01 -4 3 -1
5087 1 -1.8246407071169280e+01 -2.0588624420817247e+01 -2.7156975897969925e+01 0 0.0000000000000000e+00 -4.6775528870980826e-01 2.7072258593484305e-01 3.0881326861963172e-02 5.0000000000000000e+00 5.8320000000000005e-01 1 -4 0
4520 1 -1.4419903534733876e+01 -2.4396377240094886e+01 -2.8890961514019185e+01 0 0.0000000000000000e+00 1.1083650883907918e-01 5.1748921130782366e-01 1.1380200124941289e-01 5.0000000000000000e+00 5.8320000000000005e-01 -4 -5 0
2926 1 -1.6658765337593188e+01 -2.6063711183203509e+01 -2.7018276230048667e+01 0 0.0000000000000000e+00 6.7875148312257175e-02 4.9290607036724648e-01 -2.1324098066907363e-01 5.0000000000000000e+00 5.8320000000000005e-01 0 0 1
6589 1 -1.7382331529567743e+01 -2.3367924384814106e+01 -2.7726173651301973e+01 0 0.0000000000000000e+00 2.2104958085875831e-01 4.6237222525603783e-01 -1.7428691234268628e-01 5.0000000000000000e+00 5.8320000000000005e-01 -1 3 0
5792 1 -1.5136693074906887e+01 -2.0442367114417692e+01 -2.6589240789126173e+01 0 0.0000000000000000e+00 -3.3358687367005069e-01 -1.0211229895776178e-01 -4.1391641416667962e-01 5.0000000000000000e+00 5.8320000000000005e-01 0 2 1
2314 1 -1.9942736978769847e+01 -2.5485511358850939e+01 -3.3231357646778683e+01 0 0.0000000000000000e+00 5.1122758559017523e-01 1.3328874379056396e-01 -1.1797213828007626e-01 5.0000000000000000e+00 5.8320000000000005e-01 6 0 1
6655 1 -1.0121246689208604e+01 -2.5989163530742520e+01 -3.4065090115785246e+01 0 0.0000000000000000e+00 -2.8045476916509160e-01 -2.0650618908183757e-01 -4.1440094464594490e-01 5.0000000000000000e+00 5.8320000000000005e-01 1 -3 0
5900 1 -1.2311410651745732e+01 -1.9189459510733329e+01 -3.4477206646885371e+01 0 0.0000000000000000e+00 4.6907114572205677e-01 8.7574669310580569e-02 2.5560427020325660e-01 5.0000000000000000e+00 5.8320000000000005e-01 1 6 1
2059 1 -1.0412675998912743e+01 -2.3078145174036489e+01 -2.8814893593573384e+01 0 0.0000000000000000e+00 2.9035078748203264e-01 -4.5571359462813266e-01 -3.2531911712493533e-02 5.0000000000000000e+00 5.8320000000000005e-01 1 0 1
3164 1 -1.2277538491277149e+01 -2.0818402338073351e+01 -2.8633779307310675e+01 0 0.0000000000000000e+00 2.3612053848206310e-01 -3.9563365033654019e-01 2.8417833771828016e-01 5.0000000000000000e+00 5.8320000000000005e-01 3 1 1
2026 1 -1.0621645204751793e+01 -2.0933009137892263e+01 -2.6028905192540655e+01 0 0.0000000000000000e+00 4.5913341698442234e-01 2.3959689987218291e-01 1.5755312748354994e-01 5.0000000000000000e+00 5.8320000000000005e-01 4 -4 1
2377 1 -1.0748273646777807e+01 -2.1441810151584306e+01 -3.2655725995105271e+01 0 0.0000000000000000e+00 -2.5973880814202405e-01 -4.6136320526490626e-01 -1.1275448049923656e-01 5.0000000000000000e+00 5.8320000000000005e-01 0 1 1
1832 1 -8.3842897890313033e+00 -2.0545230976776228e+01 -2.9054528701582324e+01 0 0.0000000000000000e+00 -4.3458215091378971e-01 3.1671485938258048e-01 6.2175238265858745e-02 5.0000000000000000e+00 5.8320000000000005e-01 1 -2 1
2122 1 -9.3441658739642186e+00 -2.4320617132847886e+01 -3.1354602406054600e+01 0 0.0000000000000000e+00 -2.2795755326872874e-01 -7.3523052329656904e-02 -4.8545096805327842e-01 5.0000000000000000e+00 5.8320000000000005e-01 -3 -3 1
6285 1 -6.7676448979327368e+00 -2.3174839209298661e+01 -2.7977382158808087e+01 0 0.0000000000000000e+00 1.0272774742550768e-01 1.1822755399361429e-01 -5.1817163101193431e-01 5.0000000000000000e+00 5.8320000000000005e-01 8 0 0
1935 1 -7.0650669303478679e+00 -2.1402403661463808e+01 -3.1958871705296154e+01 0 0.0000000000000000e+00 -3.3525348181099990e-01 1.4386785531380411e-01 3.9993035848883474e-01 5.0000000000000000e+00 5.8320000000000005e-01 1 2 1
5537 1 -1.0510914880245537e+01 -1.8971665327229566e+01 -3.0329658035167519e+01 0 0.0000000000000000e+00 -1.2100920878721144e-01 5.5456705045476097e-02 -5.2470926726539924e-01 5.0000000000000000e+00 5.8320000000000005e-01 2 -3 1
6025 1 -7.2237390396105390e+00 -2.0412560518668499e+01 -2.6032284015427408e+01 0 0.0000000000000000e+00 3.3940592656866209e-01 -2.3210869273513815e-01 -3.5208955205579906e-01 5.0000000000000000e+00 5.8320000000000005e-01 4 8 1
2073 1 -9.3895718859021784e+00 -1.8825759662222573e+01 -3.3190984533177513e+01 0 0.0000000000000000e+00 3.1121557924275517e-01 -4.2488000509178520e-01 -1.2512547066765017e-01 5.0000000000000000e+00 5.8320000000000005e-01 1 -1 1
3997 1 -1.2942903412697227e+01 -2.3339670514902892e+01 -3.2562401536160380e+01 0 0.0000000000000000e+00 -4.0077098787366716e-01 -3.6166328935468328e-01 4.0190695588850238e-02 5.0000000000000000e+00 5.8320000000000005e-01 -5 3 0
4443 1 -8.2686471680538105e+00 -2.3280891948896688e+01 -3.4141861056674927e+01 0 0.0000000000000000e+00 4.8925761417773550e-01 1.6989060532546749e-01 1.5746100625633105e-01 5.0000000000000000e+00 5.8320000000000005e-01 -1 0 0
5025 1 -1.0542225888393375e-01 -2.3761686711118958e+01 -3.0265514306499298e+01 0 0.0000000000000000e+00 3.3586717811147809e-01 5.3387267396392331e-02 4.2116675610425230e-01 5.0000000000000000e+00 5.8320000000000005e-01 -1 2 0
3964 1 -3.9796306941247153e+00 -1.9810904975585963e+01 -2.6583603973582839e+01 0 0.0000000000000000e+00 4.4987713646245797e-01 1.3068716960704094e-01 2.7123191771699634e-01 5.0000000000000000e+00 5.8320000000000005e-01 -2 -1 0
2484 1 -5.7965810111722185e+00 -2.4387030320690478e+01 -3.0727780333766699e+01 0 0.0000000000000000e+00 -1.1288968589543535e-03 -3.3939236528231831e-01 -4.2171717783362250e-01 5.0000000000000000e+00 5.8320000000000005e-01 -5 -1 1