LAMMPS data file via write_data, version 1 Feb 2014, timestep = 15054000

7040 atoms
6 atom types
1792 bonds
5 bond types
2048 angles
5 angle types

-3.4052391428886800e+01 3.4052391428886800e+01 xlo xhi
-3.4052391428886800e+01 3.4052391428886800e+01 ylo yhi
-3.5370159529075082e+01 3.5370159529075082e+01 zlo zhi

Masses

1 40
2 90
3 90
4 62
5 62
6 42

Bond Coeffs

1 1.506 4.77
2 1.506 4.41
3 1.506 4.14
4 1.506 4.095
5 1.506 4.05

Atoms

5331 1 -3.1261916542356289e+01 -2.9114686730846255e+01 -2.7069850004691432e+01 0 0.0000000000000000e+00 2.7797972283940880e-01 4.4407405151469631e-01 -1.3622758076633504e-01 5.0000000000000000e+00 5.8320000000000005e-01 3 0 0
6127 1 -3.1716438419908574e+01 -3.2687954252742486e+01 -2.7413127076959508e+01 0 0.0000000000000000e+00 4.8955557566879987e-01 1.7178122621572864e-01 -1.5448180265458614e-01 5.0000000000000000e+00 5.8320000000000005e-01 2 -1 1
4018 1 -2.8168614554246020e+01 -2.9131375354161609e+01 -2.8651958471270142e+01 0 0.0000000000000000e+00 -3.7554424391129587e-01 -2.2733315473650242e-01 -3.1673706086064912e-01 5.0000000000000000e+00 5.8320000000000005e-01 0 -3 0
5861 1 -2.9133467069615762e+01 -2.9755665329820058e+01 -3.2711883745123131e+01 0 0.0000000000000000e+00 -4.7376994500891750e-01 2.0268875668113101e-01 -1.6581390870884341e-01 5.0000000000000000e+00 5.8320000000000005e-01 -2 -2 1
4443 1 -3.0727065087634880e+01 -2.7861687685613482e+01 -3.0205065478486279e+01 0 0.0000000000000000e+00 -1.9809280567682352e-01 -8.4689561897218039e-03 -5.0370733210877605e-01 5.0000000000000000e+00 5.8320000000000005e-01 6 2 0
5092 1 -2.8790051249011054e+01 -3.2363658269782384e+01 -2.9227447828929783e+01 0 0.0000000000000000e+00 -3.5173703952466445e-01 -2.5363303942146226e-03 -4.1147281204783870e-01 5.0000000000000000e+00 5.8320000000000005e-01 1 3 0
2809 1 -2.7172486639057336e+01 -3.3672411152459567e+01 -2.6825616612241650e+01 0 0.0000000000000000e+00 -2.4652238274882379e-01 1.3925774033446511e-01 -4.6137675869161532e-01 5.0000000000000000e+00 5.8320000000000005e-01 -3 7 1
6737 1 -3.1032280567433556e+01 -3.1532783709067388e+01 -3.0777351652589555e+01 0 0.0000000000000000e+00 -3.2643269762207022e-01 4.0545108817827941e-02 -4.2991369479714014e-01 5.0000000000000000e+00 5.8320000000000005e-01 0 -4 0
6020 1 -2.7555004216471936e+01 -2.7268585674024408e+01 -3.1661765653395026e+01 0 0.0000000000000000e+00 3.6870426100339360e-01 -3.7104356492153778e-01 -1.3934498608941037e-01 5.0000000000000000e+00 5.8320000000000005e-01 1 0 1
2318 1 -3.2236992782070573e+01 -3.1934417356510938e+01 -3.3587223843764164e+01 0 0.0000000000000000e+00 -1.1184905237345735e-01 3.9491896697776445e-03 -5.2963441814530121e-01 5.0000000000000000e+00 5.8320000000000005e-01 3 2 1
2253 1 -3.1943592751201567e+01 -2.8835854395085100e+01 -3.2872666222831533e+01 0 0.0000000000000000e+00 -4.0246463866510801e-01 -3.0107373014005907e-02 -3.6076356760953510e-01 5.0000000000000000e+00 5.8320000000000005e-01 -2 4 1
5846 1 -2.8992375935356147e+01 -3.2528393842622435e+01 -3.5124341357754204e+01 0 0.0000000000000000e+00 3.8723326430558612e-02 3.5923302705732635e-01 -4.0309950875854794e-01 5.0000000000000000e+00 5.8320000000000005e-01 -4 -5 1
5989 1 -3.3618742076132278e+01 -2.9814853471510446e+01 -3.5158552554376342e+01 0 0.0000000000000000e+00 -1.8643601531170753e-01 1.4393794655157202e-01 -4.8739487906338280e-01 5.0000000000000000e+00 5.8320000000000005e-01 1 1 1
3168 1 -3.3000751773788998e+01 -2.6692594121793690e+01 -3.4906110827785341e+01 0 0.0000000000000000e+00 4.5869141404906777e-01 2.8447979448420613e-01 4.1361936703816132e-02 5.0000000000000000e+00 5.8320000000000005e-01 2 6 1
4384 1 -2.8970765428011770e+01 -3.3095674610637289e+01 -3.2059618809194596e+01 0 0.0000000000000000e+00 2.1739354909524272e-01 1.2695078616176931e-02 -4.9559378758283823e-01 5.0000000000000000e+00 5.8320000000000005e-01 -2 0 0
4978 1 -3.3677338290580536e+01 -3.3171096207433649e+01 -2.9935968320775352e+01 0 0.0000000000000000e+00 2.5596196461806281e-01 -3.3968416909268090e-01 3.3486507079221711e-01 5.0000000000000000e+00 5.8320000000000005e-01 4 4 0
3769 1 -2.5759678083474565e+01 -2.9457894403104554e+01 -3.0612166972458667e+01 0 0.0000000000000000e+00 2.8101559424763445e-01 -9.0465655354695890e-02 4.5374418992522020e-01 5.0000000000000000e+00 5.8320000000000005e-01 -1 -6 0
5924 1 -2.5191262397957644e+01 -3.1137707160805029e+01 -2.7964343000708865e+01 0 0.0000000000000000e+00 8.3620890337636727e-02 3.0959477396322271e-01 4.3610938964186713e-01 5.0000000000000000e+00 5.8320000000000005e-01 -3 1 1
2233 1 -2.1632318552756402e+01 -3.0002946660740218e+01 -2.9637393063301246e+01 0 0.0000000000000000e+00 -2.0159714277571864e-02 2.6798764425467070e-01 -4.6989921317988892e-01 5.0000000000000000e+00 5.8320000000000005e-01 0 -1 1
2811 1 -2.5027891138662476e+01 -3.2600192318511752e+01 -3.0609691771059879e+01 0 0.0000000000000000e+00 1.0057470161591003e-01 -2.2726057195155910e-02 5.3141531904832517e-01 5.0000000000000000e+00 5.8320000000000005e-01 -1 2 1
2707 1 -2.2654929117399128e+01 -2.7194658643287990e+01 -3.0422507664627048e+01 0 0.0000000000000000e+00 -5.2452955919761390e-01 -4.5067468269022810e-02 1.2597400815953039e-01 5.0000000000000000e+00 5.8320000000000005e-01 1 0 1
5575 1 -2.7150976409107528e+01 -2.9114431982433111e+01 -3.4973069225612640e+01 0 0.0000000000000000e+00 4.4313232587616547e-01 -7.5148116179968930e-02 3.0169116741824209e-01 5.0000000000000000e+00 5.8320000000000005e-01 2 0 1
3336 1 -2.2734899534678917e+01 -3.3143797913829275e+01 -3.2652075976805293e+01 0 0.0000000000000000e+00 -3.6653272489399924e-01 1.0459839818068077e-01 3.8438385668471514e-01 5.0000000000000000e+00 5.8320000000000005e-01 -3 -6 1
6370 1 -2.6408778226182843e+01 -3.1493554754201799e+01 -3.3098204207262235e+01 0 0.0000000000000000e+00 2.5989110267042131e-01 8.3447176968872078e-02 4.6746355880290630e-01 5.0000000000000000e+00 5.8320000000000005e-01 3 0 0
2970 1 -2.3312621927661255e+01 -2.8651564535468165e+01 -3.5006927163857604e+01 0 0.0000000000000000e+00 -1.3503332953774555e-01 2.3965742521574021e-01 -4.6622500893121616e-01 5.0000000000000000e+00 5.8320000000000005e-01 -1 8 1
5232 1 -2.2849076936218211e+01 -2.9579438214678405e+01 -3.2368141866697307e+01 0 0.0000000000000000e+00 4.5802313438896000e-02 1.1181812305591865e-01 -5.2766702193703241e-01 5.0000000000000000e+00 5.8320000000000005e-01 2 2 0
4882 1 -2.1577002911813967e+01 -3.0259241091748187e+01 -2.6678040884707492e+01 0 0.0000000000000000e+00 -1.1489569663859470e-01 1.1581714849970325e-02 -5.2886725364222165e-01 5.0000000000000000e+00 5.8320000000000005e-01 2 1 0
6305 1 -2.4272884850897931e+01 -2.8278519650903952e+01 -2.8087087460784183e+01 0 0.0000000000000000e+00 -8.0863577813186663e-02 1.4218377694919804e-01 5.1602513103114611e-01 5.0000000000000000e+00 5.8320000000000005e-01 -2 -1 0
5928 1 -2.1106374996331120e+01 -3.3507926452306315e+01 -2.7731718836161903e+01 0 0.0000000000000000e+00 -2.1287039520055856e-01 -1.6459861754311939e-01 4.6970852935629331e-01 5.0000000000000000e+00 5.8320000000000005e-01 2 1 1
2996 1 -1.9840722503640741e+01 -2.9270170182808574e+01 -3.4084248577947392e+01 0 0.0000000000000000e+00 1.3673489382077153e-01 4.8451910028255785e-01 -1.9894293974203509e-01 5.0000000000000000e+00 5.8320000000000005e-01 3 6 1
6412 1 -2.0208390572001697e+01 -2.6451382227717929e+01 -3.1680435238450276e+01 0 0.0000000000000000e+00 -2.4771238162386933e-01 -1.7973595721243360e-01 4.4650865475952506e-01 5.0000000000000000e+00 5.8320000000000005e-01 -2 2 0
4716 1 -1.9927902041590265e+01 -2.7605796992960862e+01 -2.7773452973919376e+01 0 0.0000000000000000e+00 1.3885560137028172e-01 -1.4842128321387216e-01 -5.0172148773721548e-01 5.0000000000000000e+00 5.8320000000000005e-01 -7 7 0
7036 1 -1.6424144551581222e+01 -2.7938454943499842e+01 -2.7753038429998870e+01 0 0.0000000000000000e+00 -1.5799777289983372e-02 -2.1801848707090929e-01 4.9523041630426817e-01 5.0000000000000000e+00 5.8320000000000005e-01 2 1 0
5931 1 -1.3902234704927288e+01 -2.7060797206525010e+01 -2.9603340259665291e+01 0 0.0000000000000000e+00 -3.7381137353636601e-01 -3.0119870504993807e-02 -3.9037209033897124e-01 5.0000000000000000e+00 5.8320000000000005e-01 -1 -5 1
4871 1 -1.6496455688455274e+01 -3.0914347438934755e+01 -2.8002734696474455e+01 0 0.0000000000000000e+00 -3.8735486878011477e-01 -1.1474718883608513e-01 3.6030117927444538e-01 5.0000000000000000e+00 5.8320000000000005e-01 -1 -2 0
4944 1 -1.8537076077692259e+01 -2.8699704043031986e+01 -3.0365882986267035e+01 0 0.0000000000000000e+00 4.7493315509444484e-01 -1.7765238454283516e-01 -1.8949979039112547e-01 5.0000000000000000e+00 5.8320000000000005e-01 0 2 0
6235 1 -1.6350598652719761e+01 -3.0448993172848880e+01 -3.1368189957860189e+01 0 0.0000000000000000e+00 1.6873509884381224e-01 -5.0355850249166823e-01 1.0482920912855069e-01 5.0000000000000000e+00 5.8320000000000005e-01 6 0 0
3290 1 -1.7680965904026642e+01 -2.6866946027457480e+01 -3.3208252231152223e+01 0 0.0000000000000000e+00 -4.1481517390607059e-01 3.4660470079493988e-01 2.8755320970676880e-02 5.0000000000000000e+00 5.8320000000000005e-01 3 -2 1
3842 1 -1.6202921616712416e+01 -3.3405662280473194e+01 -3.2721580966291988e+01 0 0.0000000000000000e+00 -5.6220227451554042e-02 -2.7939152812168822e-01 -4.6022672482062948e-01 5.0000000000000000e+00 5.8320000000000005e-01 1 -2 0
3564 1 -1.4643939839003856e+01 -2.6646297763708894e+01 -3.2494092421253903e+01 0 0.0000000000000000e+00 -4.8264644377028937e-01 1.1454869103582177e-01 -2.1670188992685926e-01 5.0000000000000000e+00 5.8320000000000005e-01 1 6 1
6907 1 -1.4088812627721300e+01 -3.2889116302125622e+01 -3.0875307504997242e+01 0 0.0000000000000000e+00 -2.1979925378496615e-01 2.8633537060987685e-01 -4.0340466094639571e-01 5.0000000000000000e+00 5.8320000000000005e-01 -1 -2 0
3927 1 -1.3745704860646082e+01 -3.0216364913971614e+01 -2.8921578065366102e+01 0 0.0000000000000000e+00 -4.2035199743270801e-01 1.2285701856898303e-01 3.1818345076806426e-01 5.0000000000000000e+00 5.8320000000000005e-01 0 -2 0
2231 1 -1.9680331973045902e+01 -3.2253522670337425e+01 -3.0430824254339129e+01 0 0.0000000000000000e+00 1.0060539945925119e-01 -2.4928463771422799e-01 4.6986796272924430e-01 5.0000000000000000e+00 5.8320000000000005e-01 -4 -1 1
4700 1 -1.8983203648031825e+01 -3.2409060831508420e+01 -3.3676637290029078e+01 0 0.0000000000000000e+00 -6.7795241370500095e-02 4.5999858018621975e-01 2.7720336753758523e-01 5.0000000000000000e+00 5.8320000000000005e-01 0 2 0
6802 1 -1.0091634666177459e+01 -2.8595013710280860e+01 -3.1461899752508767e+01 0 0.0000000000000000e+00 7.0776116618666063e-02 -4.6191930320362923e-01 2.7322172963410973e-01 5.0000000000000000e+00 5.8320000000000005e-01 0 0 0
5994 1 -1.3487963185913443e+01 -3.1533248723520337e+01 -3.3395516461569379e+01 0 0.0000000000000000e+00 2.7244530817210899e-01 1.3985069105991771e-01 -4.4636758402136234e-01 5.0000000000000000e+00 5.8320000000000005e-01 -1 8 1
2277 1 -8.6183684578649995e+00 -3.1165476280493035e+01 -3.1964775660297615e+01 0 0.0000000000000000e+00 -8.7576558493776560e-02 -4.9987946613610107e-01 1.8837068943408572e-01 5.0000000000000000e+00 5.8320000000000005e-01 -2 0 1
5502 1 -1.2242996703688902e+01 -2.7732485572767839e+01 -3.3640841241967962e+01 0 0.0000000000000000e+00 -1.4560472597952209e-01 2.0559424690932415e-01 4.7912628628600218e-01 5.0000000000000000e+00 5.8320000000000005e-01 0 0 1
4016 1 -1.0860660978378146e+01 -3.1561573013527095e+01 -3.0377186130783045e+01 0 0.0000000000000000e+00 -4.2970682788950343e-01 7.6026484012368362e-02 3.2031804116199536e-01 5.0000000000000000e+00 5.8320000000000005e-01 2 2 0
5876 1 -6.9938481665388785e+00 -2.9060304654359840e+01 -3.0280132558274655e+01 0 0.0000000000000000e+00 4.0402263517465475e-01 -2.6838023138203404e-01 -2.4035944701603421e-01 5.0000000000000000e+00 5.8320000000000005e-01 0 0 1
2675 1 -9.0071299488241543e+00 -2.9459614077234157e+01 -2.8146016240354662e+01 0 0.0000000000000000e+00 5.0427480149557724e-01 -1.5030938567092389e-01 -1.2705627987559565e-01 5.0000000000000000e+00 5.8320000000000005e-01 -2 1 1
5636 1 -9.5134578612889449e+00 -2.8559951732277931e+01 -3.4870122034626519e+01 0 0.0000000000000000e+00 -2.8004510619515305e-01 2.1051189350298005e-01 4.1266767621166495e-01 5.0000000000000000e+00 5.8320000000000005e-01 2 -1 1
4314 1 -1.0451959259992297e+01 -3.1973412294924390e+01 -3.4369391588543920e+01 0 0.0000000000000000e+00 3.8035241012823884e-01 1.8679655893490404e-01 -3.3686065172370444e-01 5.0000000000000000e+00 5.8320000000000005e-01 -1 -2 0
2793 1 -1.2689496957976587e+01 -3.3886675272478392e+01 -2.8330945659772183e+01 0 0.0000000000000000e+00 -1.0087437905462338e-01 1.0241465093721017e-01 -5.2188411072167495e-01 5.0000000000000000e+00 5.8320000000000005e-01 2 6 1
2526 1 -7.9331839327247913e+00 -3.1903463333637902e+01 -2.8984296632145210e+01 0 0.0000000000000000e+00 1.2251049492018574e-01 -5.1887086370589064e-01 -9.3762008998923077e-02 5.0000000000000000e+00 5.8320000000000005e-01 3 5 1
2188 1 -1.2442554966080703e+01 -2.6511226313948654e+01 -2.7092496432056880e+01 0 0.0000000000000000e+00 -4.5816794215908091e-01 9.6474911345583780e-02 -2.7168465480879633e-01 5.0000000000000000e+00 5.8320000000000005e-01 5 -3 1
5864 1 -4.4534696537884599e-01 -3.3387021310886546e+01 -2.8085728251862832e+01 0 0.0000000000000000e+00 4.2789275720865266e-01 -3.2815359894288088e-01 -4.7455782884827533e-02 5.0000000000000000e+00 5.8320000000000005e-01 3 0 1
3634 1 -4.4960306251609090e+00 -3.3366204686110422e+01 -3.2447889677362639e+01 0 0.0000000000000000e+00 -1.2961786856832880e-01 -7.2549425690756425e-02 -5.2054949580202736e-01 5.0000000000000000e+00 5.8320000000000005e-01 2 -2 1
2336 1 -6.6513911768029850e+00 -3.0059167984545905e+01 -3.4023792779051888e+01 0 0.0000000000000000e+00 -2.8992236760622508e-01 2.3228345581127904e-01 3.9372699325544130e-01 5.0000000000000000e+00 5.8320000000000005e-01 2 -2 1
4713 1 -4.7335220232258699e+00 -3.0429175167154447e+01 -3.1846418075997004e+01 0 0.0000000000000000e+00 4.1090748385760417e-01 8.6407274766418338e-02 -3.4165036437453628e-01 5.0000000000000000e+00 5.8320000000000005e-01 -2 0 0
6744 1 -3.8234001195806506e+00 -2.9652664663954496e+01 -2.8503883323351673e+01 0 0.0000000000000000e+00 -4.1593080136526894e-01 1.5761269505062130e-03 3.4644853369509448e-01 5.0000000000000000e+00 5.8320000000000005e-01 0 1 0
4065 1 -2.9293026916780427e+00 -2.9803724822004099e+01 -3.4283693134256339e+01 0 0.0000000000000000e+00 -1.8490342402122186e-02 -1.9292259095121758e-01 -5.0544646258384418e-01 5.0000000000000000e+00 5.8320000000000005e-01 3 0 0
4462 1 -1.8559129478125911e+00 -3.0373963497143290e+01 -3.0497498800099159e+01 0 0.0000000000000000e+00 -1.3198695957641068e-01 1.5613901872438202e-01 5.0122623897154661e-01 5.0000000000000000e+00 5.8320000000000005e-01 -2 1 0
4485 1 -2.0042767956002123e+00 -2.7346856727019624e+01 -3.2082564177693079e+01 0 0.0000000000000000e+00 -5.2925866889619022e-01 -8.8562093027855060e-02 7.1274773775568359e-02 5.0000000000000000e+00 5.8320000000000005e-01 5 -1 0
5151 1 -5.7013689335596069e+00 -2.7750470861817284e+01 -2.7325028816443595e+01 0 0.0000000000000000e+00 5.9175229546810350e-02 1.7729249792389559e-01 5.0803239531351529e-01 5.0000000000000000e+00 5.8320000000000005e-01 -4 2 0
2513 1 -2.5791659735418868e+00 -2.6574320099737662e+01 -2.7834312592533394e+01 0 0.0000000000000000e+00 -1.3640000409021955e-01 1.1760395411872409e-03 -5.2385890267817892e-01 5.0000000000000000e+00 5.8320000000000005e-01 1 -3 1
6069 1 -4.7638304838098691e+00 -2.6433593206266671e+01 -3.2817781304083347e+01 0 0.0000000000000000e+00 -2.6272807329180609e-01 3.8568064279423458e-01 2.7433002000911494e-01 5.0000000000000000e+00 5.8320000000000005e-01 -3 -2 1
4130 1 -3.8353271626130692e-01 -2.9013279918276716e+01 -2.8316631884564707e+01 0 0.0000000000000000e+00 2.9939127854430585e-02 4.3579994170741748e-01 3.1970883883797696e-01 5.0000000000000000e+00 5.8320000000000005e-01 -2 -2 0
4835 1 -5.4010653981642065e-02 -2.9584547160946308e+01 -3.2983245189530898e+01 0 0.0000000000000000e+00 -4.8479497564224411e-01 2.3955147230744545e-01 -2.5078532799411437e-02 5.0000000000000000e+00 5.8320000000000005e-01 4 -1 0
2405 1 -2.7619572270217354e+00 -3.3476307424513557e+01 -3.4658507300053934e+01 0 0.0000000000000000e+00 4.6880413020800282e-01 2.2567720325827233e-02 -2.6971686580414883e-01 5.0000000000000000e+00 5.8320000000000005e-01 3 3 1
4208 1 -6.1409507424933878e+00 -3.1114905682647731e+01 -2.6617375255241484e+01 0 0.0000000000000000e+00 -4.9735026999406756e-01 -1.8704788165842684e-01 1.0339681379966759e-01 5.0000000000000000e+00 5.8320000000000005e-01 -3 1 0
4411 1 -4.9014531303623485e+00 -3.2488655211101332e+01 -2.9671675876912701e+01 0 0.0000000000000000e+00 9.1088314946757495e-02 2.4463105414450731e-01 -4.7422959157807465e-01 5.0000000000000000e+00 5.8320000000000005e-01 0 1 0
3236 1 -3.1069893363427443e+01 -2.2536607197518954e+01 -3.1865122972035568e+01 0 0.0000000000000000e+00 -1.2983713902077959e-01 3.0089398215113439e-01 4.3085462668530272e-01 5.0000000000000000e+00 5.8320000000000005e-01 3 -1 1
3553 1 -3.0086850043338199e+01 -2.6072817017972071e+01 -2.6802412635246988e+01 0 0.0000000000000000e+00 3.7678645122413673e-01 2.9969865305141891e-01 2.4747942304984971e-01 5.0000000000000000e+00 5.8320000000000005e-01 0 5 1
2299 1 -3.3675987032708377e+01 -2.1223068923028372e+01 -2.7670455662599238e+01 0 0.0000000000000000e+00 2.1696279407653618e-01 -6.0868801486413680e-02 -4.9219153171515473e-01 5.0000000000000000e+00 5.8320000000000005e-01 1 -2 1
5233 1 -2.7490731595988333e+01 -2.1997362241560090e+01 -3.5144816045759448e+01 0 0.0000000000000000e+00 2.0438891494573283e-01 -3.0220497225923681e-01 -3.9991652227571189e-01 5.0000000000000000e+00 5.8320000000000005e-01 0 7 0
5845 1 -2.7701381425801305e+01 -2.4267228250615013e+01 -3.2039077598205829e+01 0 0.0000000000000000e+00 -1.0001485434459677e-01 -4.0815090706709062e-01 3.4123662181943537e-01 5.0000000000000000e+00 5.8320000000000005e-01 4 1 1
2779 1 -2.7390782589592860e+01 -2.0840534908765903e+01 -3.2182433068376788e+01 0 0.0000000000000000e+00 2.8580454288369934e-02 -4.2980254301510501e-01 -3.2785040468240861e-01 5.0000000000000000e+00 5.8320000000000005e-01 1 3 1
1933 1 -2.8824462730920651e+01 -2.2101420965560557e+01 -2.9435840165780938e+01 0 0.0000000000000000e+00 4.9114380294150722e-01 -1.9336495184345007e-01 -1.2007703498477217e-01 5.0000000000000000e+00 5.8320000000000005e-01 3 3 1
4579 1 -3.0398641919011084e+01 -1.9318463737285914e+01 -3.2084710666810771e+01 0 0.0000000000000000e+00 3.9164058273096497e-01 3.1404610570470815e-01 -2.0254615165403053e-01 5.0000000000000000e+00 5.8320000000000005e-01 0 1 0
3838 1 -3.3111861551835574e+01 -2.0010363685546380e+01 -3.2869270838893627e+01 0 0.0000000000000000e+00 4.8890453580651577e-01 1.5127243549642827e-01 1.7642074063667862e-01 5.0000000000000000e+00 5.8320000000000005e-01 -4 -1 0
3696 1 -3.1457897065028636e+01 -2.3247763758983730e+01 -2.7872926661327867e+01 0 0.0000000000000000e+00 2.5018503567756262e-01 3.9296950313941864e-01 2.7570578580322763e-01 5.0000000000000000e+00 5.8320000000000005e-01 -4 -2 1
4885 1 -3.1552904392967019e+01 -2.0439116437591878e+01 -2.9390460137950082e+01 0 0.0000000000000000e+00 4.7916286182682366e-01 2.3679988927660617e-01 -8.5787458783410916e-02 5.0000000000000000e+00 5.8320000000000005e-01 -4 3 0
2171 1 -2.8415033393307120e+01 -2.5810217857940458e+01 -2.9325107362825449e+01 0 0.0000000000000000e+00 -2.2884394505349201e-01 -4.8967934633629862e-01 -2.9555735213487224e-02 5.0000000000000000e+00 5.8320000000000005e-01 2 5 1
3750 1 -3.0654725567308319e+01 -2.1940894563609390e+01 -3.4654690844976443e+01 0 0.0000000000000000e+00 1.6523415038724099e-01 2.9768831438367116e-01 4.2084416513148343e-01 5.0000000000000000e+00 5.8320000000000005e-01 1 3 0
3234 1 -3.0915113902817833e+01 -2.5583000554573928e+01 -3.2966906269204905e+01 0 0.0000000000000000e+00 1.7574812375262056e-01 1.9834796405219260e-01 4.7202600304833159e-01 5.0000000000000000e+00 5.8320000000000005e-01 0 0 1
1991 1 -2.8140020605105903e+01 -2.3491879876790357e+01 -2.6705769571135260e+01 0 0.0000000000000000e+00 5.0281821874361220e-02 5.0447884252738062e-01 -1.8976296670116954e-01 5.0000000000000000e+00 5.8320000000000005e-01 4 -1 1
5171 1 -2.7337125792472307e+01 -1.9787264226882797e+01 -2.7178336002997462e+01 0 0.0000000000000000e+00 5.3008530668932463e-01 -2.6046562584577562e-02 -1.0661651987197997e-01 5.0000000000000000e+00 5.8320000000000005e-01 0 3 0
3193 1 -3.2027896222964422e+01 -2.5243060620252926e+01 -3.0203064170532958e+01 0 0.0000000000000000e+00 -3.1622498973879326e-01 4.6424449163056374e-02 4.3689452649879568e-01 5.0000000000000000e+00 5.8320000000000005e-01 4 -1 1
6295 1 -2.3025434937508813e+01 -2.4110784834818411e+01 -3.1243065969017888e+01 0 0.0000000000000000e+00 -3.5800331136509533e-01 -2.2651811759598772e-01 3.3697225130920916e-01 5.0000000000000000e+00 5.8320000000000005e-01 0 -2 0
2373 1 -2.5720829354048679e+01 -2.1883863853863751e+01 -2.9823115097836293e+01 0 0.0000000000000000e+00 3.7955477722460057e-01 2.8745314724437626e-01 -2.5756302942248249e-01 5.0000000000000000e+00 5.8320000000000005e-01 0 4 1
4160 1 -2.4229979841126095e+01 -2.0916379203499339e+01 -3.3132141729266202e+01 0 0.0000000000000000e+00 3.2742285799599852e-01 3.6655440192888838e-01 2.2686708859657687e-01 5.0000000000000000e+00 5.8320000000000005e-01 2 3 0
4176 1 -2.4831745916960774e+01 -2.3455164360387265e+01 -2.7304326564169866e+01 0 0.0000000000000000e+00 3.0564553151854029e-01 1.4210884591733886e-01 -4.2357760891575819e-01 5.0000000000000000e+00 5.8320000000000005e-01 -3 1 0
3256 1 -2.5140045308960808e+01 -2.5555638849732190e+01 -2.9699739058449495e+01 0 0.0000000000000000e+00 -3.7833952897865242e-01 -3.1977495700343045e-01 2.1825721909175327e-01 5.0000000000000000e+00 5.8320000000000005e-01 3 4 1
4345 1 -2.5045528577152282e+01 -1.9044644237009503e+01 -3.0809719459691678e+01 0 0.0000000000000000e+00 -3.2670592190493680e-01 3.9661344567570417e-01 -1.7027722425941352e-01 5.0000000000000000e+00 5.8320000000000005e-01 0 -3 0
5555 1 -2.2553241807841029e+01 -2.1832252462922824e+01 -2.9222310919773090e+01 0 0.0000000000000000e+00 4.9832484326129772e-01 -1.8184174456176438e-01 -1.0786634981928857e-01 5.0000000000000000e+00 5.8320000000000005e-01 -2 1 1
4584 1 -2.0433154103169493e+01 -2.2957428249130672e+01 -2.7008481457643263e+01 0 0.0000000000000000e+00 2.1225041402679032e-01 2.6804515122557721e-01 4.1968910165730250e-01 5.0000000000000000e+00 5.8320000000000005e-01 2 -1 0
5596 1 -2.1414681745191324e+01 -2.1492001089326564e+01 -3.3704015159744195e+01 0 0.0000000000000000e+00 3.9366469648998059e-01 -3.6906650047694223e-01 4.3097461214722972e-02 5.0000000000000000e+00 5.8320000000000005e-01 0 -4 1
5724 1 -2.0558773022207561e+01 -2.4213079821997560e+01 -3.3676185407928294e+01 0 0.0000000000000000e+00 -2.6109457202829436e-02 -4.9689661476630248e-01 2.1317348469817352e-01 5.0000000000000000e+00 5.8320000000000005e-01 -7 5 1
2961 1 -2.4521848952391373e+01 -1.9658994065261901e+01 -2.6551536197402648e+01 0 0.0000000000000000e+00 4.3857964823295492e-01 2.8169046103771905e-01 1.4606514887615951e-01 5.0000000000000000e+00 5.8320000000000005e-01 -3 4 1
3518 1 -2.3718624017092942e+01 -2.3661477807154355e+01 -3.4299356181312646e+01 0 0.0000000000000000e+00 9.9531724329139121e-02 4.3750743198190228e-01 3.0283302067751700e-01 5.0000000000000000e+00 5.8320000000000005e-01 -2 0 1
6992 1 -2.6161843734503677e+01 -2.6258464215735486e+01 -2.6781222305054420e+01 0 0.0000000000000000e+00 1.3875755878506785e-01 3.9047994488656662e-01 3.4828720450426021e-01 5.0000000000000000e+00 5.8320000000000005e-01 -2 3 0
2189 1 -2.2523079811964369e+01 -2.5284771197344249e+01 -2.7546040068836867e+01 0 0.0000000000000000e+00 4.8641814578824638e-01 -2.1791649728609427e-01 -9.4583580808107956e-02 5.0000000000000000e+00 5.8320000000000005e-01 0 -3 1
6349 1 -2.5542334725456712e+01 -2.6118049979986601e+01 -3.3995365202303233e+01 0 0.0000000000000000e+00 2.4033023985634730e-01 4.5154755292366905e-01 -1.7714837808807871e-01 5.0000000000000000e+00 5.8320000000000005e-01 2 0 0
2818 1 -1.5969240865537852e+01 -2.5696864950418849e+01 -3.5249069238552593e+01 0 0.0000000000000000e+00 -3.1468363635242902e-01 -3.0117575779637723e-01 -3.2139815638517616e-01 5.0000000000000000e+00 5.8320000000000005e-01 2 -5 1
3936 1 -1.9976852029312756e+01 -1.8971320039100327e+01 -3.1311686159059622e+01 0 0.0000000000000000e+00 -2.2017664205791496e-01 3.0245338859159687e-01 -3.9124501865399047e-01 5.0000000000000000e+00 5.8320000000000005e-01 3 4 0
3855 1 -1.8453676835859543e+01 -2.1992351458245921e+01 -3.3829196441934300e+01 0 0.0000000000000000e+00 2.7333372018659291e-01 -4.5467083071930148e-01 -1.0768783451243567e-01 5.0000000000000000e+00 5.8320000000000005e-01 1 8 0
6554 1 -1.7025585574926314e+01 -2.5843206416929775e+01 -3.0196598973607468e+01 0 0.0000000000000000e+00 -2.1949745354935155e-01 -3.3909946774812894e-01 3.6036415895353119e-01 5.0000000000000000e+00 5.8320000000000005e-01 3 1 0
5343 1 -1.9844333704652477e+01 -2.4762975053917408e+01 -2.9401893388606560e+01 0 0.0000000000000000e+00 9.7050267109789756e-02 4.7946340957190309e-01 -2.3178685971297858e-01 5.0000000000000000e+00 5.8320000000000005e-01 -2 -2 0
2948 1 -1.3751667460577554e+01 -2.3600929562055583e+01 -3.1398041643378743e+01 0 0.0000000000000000e+00 4.9155459572948096e-01 1.9461800257194692e-01 -1.1632692161375290e-01 5.0000000000000000e+00 5.8320000000000005e-01 3 1 1
3455 1 -1.4449910990088156e+01 -2.4010742690854265e+01 -2.8269876116248952e+01 0 0.0000000000000000e+00 -4.8060354756965284e-01 -6.1434426415999076e-02 -2.4141475165035314e-01 5.0000000000000000e+00 5.8320000000000005e-01 0 -1 1
5540 1 -1.6947192394495818e+01 -2.1447008764100715e+01 -2.8363948243250121e+01 0 0.0000000000000000e+00 -4.5183384253810349e-01 2.3186812658257741e-01 -1.8739050672949822e-01 5.0000000000000000e+00 5.8320000000000005e-01 -3 2 1
5948 1 -1.6429621894597609e+01 -2.3752402661441842e+01 -3.2340070257050165e+01 0 0.0000000000000000e+00 3.2518400458879182e-01 -2.9998534798905435e-01 3.1192088604561669e-01 5.0000000000000000e+00 5.8320000000000005e-01 -1 2 1
6596 1 -1.7359669983933966e+01 -2.0344931262510144e+01 -3.1169971336505384e+01 0 0.0000000000000000e+00 -2.7136109210066060e-02 4.6343620069060432e-01 -2.7843125536907182e-01 5.0000000000000000e+00 5.8320000000000005e-01 1 3 0
2696 1 -1.9833712035027034e+01 -2.2143123172429686e+01 -3.0774494273740384e+01 0 0.0000000000000000e+00 3.4386653529620570e-01 1.9455038860759991e-01 -3.7005257706982020e-01 5.0000000000000000e+00 5.8320000000000005e-01 -2 2 1
2327 1 -1.3648853352554024e+01 -2.0389818575085673e+01 -3.1616302777105162e+01 0 0.0000000000000000e+00 2.7358967594828798e-01 -1.3132461251648697e-01 4.4825417194032380e-01 5.0000000000000000e+00 5.8320000000000005e-01 -2 3 1
4365 1 -1.4066890087398463e+01 -2.1007726291515276e+01 -2.8985579570353934e+01 0 0.0000000000000000e+00 -1.9169144234689858e-01 -3.3478845222750686e-01 3.7974200042407208e-01 5.0000000000000000e+00 5.8320000000000005e-01 -3 2 0
5319 1 -1.9387288868113519e+01 -1.9341245981217185e+01 -2.8042908905941278e+01 0 0.0000000000000000e+00 -1.5365813175630438e-01 3.3611217433729207e-01 -3.9553653865024907e-01 5.0000000000000000e+00 5.8320000000000005e-01 1 1 0
6994 1 -1.3928462197433817e+01 -2.1320422716149192e+01 -3.4301542075098666e+01 0 0.0000000000000000e+00 1.1237828283169528e-01 4.3738418148401176e-01 2.9849973087987963e-01 5.0000000000000000e+00 5.8320000000000005e-01 2 -8 0
2783 1 -1.7623765494401646e+01 -2.4670692555791000e+01 -2.7172141713593135e+01 0 0.0000000000000000e+00 -4.8782285530104663e-01 1.4233486270766219e-01 1.8656848314740940e-01 5.0000000000000000e+00 5.8320000000000005e-01 -1 -3 1
4326 1 -1.0899309170364269e+01 -2.3600080215221581e+01 -2.8687018872745764e+01 0 0.0000000000000000e+00 6.8412561531451296e-02 -3.7681023886899212e-01 -3.8258388558353901e-01 5.0000000000000000e+00 5.8320000000000005e-01 -3 0 0
6846 1 -1.0952350406882989e+01 -2.5764210414733618e+01 -3.0640573155819908e+01 0 0.0000000000000000e+00 3.6349816696951032e-02 -4.2413723765434580e-01 -3.3439428787142750e-01 5.0000000000000000e+00 5.8320000000000005e-01 -1 5 0
2509 1 -7.3673117489296835e+00 -2.5540023559052354e+01 -3.1352601932501301e+01 0 0.0000000000000000e+00 -4.6405387657445180e-01 2.6528349086605330e-01 8.5527466407838704e-02 5.0000000000000000e+00 5.8320000000000005e-01 5 -1 1
5651 1 -7.8137676783063164e+00 -2.4989956894496522e+01 -2.8530454326914416e+01 0 0.0000000000000000e+00 -1.7861714238117041e-01 1.3277565778496350e-01 4.9345490953820187e-01 5.0000000000000000e+00 5.8320000000000005e-01 3 0 1
2998 1 -8.1027511339095284e+00 -2.2316938012140945e+01 -3.4395259231958882e+01 0 0.0000000000000000e+00 -3.8885365692628165e-01 3.6115796101056125e-01 -1.0673063662206607e-01 5.0000000000000000e+00 5.8320000000000005e-01 0 -4 1
3759 1 -1.3578950571564949e+01 -2.4369850822160259e+01 -3.4829760788040318e+01 0 0.0000000000000000e+00 -5.2767597789754961e-01 -1.0999480498331322e-01 4.9887578880394620e-02 5.0000000000000000e+00 5.8320000000000005e-01 -5 1 0
3111 1 -1.0024711456347031e+01 -2.0920453842067985e+01 -2.8130660746548976e+01 0 0.0000000000000000e+00 3.3888560587683685e-02 -5.2551489141925722e-01 -1.2538230400619238e-01 5.0000000000000000e+00 5.8320000000000005e-01 1 2 1
5471 1 -9.5958276457776641e+00 -2.5495172814459245e+01 -3.3454985751845470e+01 0 0.0000000000000000e+00 -1.0959541160347926e-02 2.2335695667539390e-01 -4.9297898227232845e-01 5.0000000000000000e+00 5.8320000000000005e-01 5 1 1
3150 1 -1.1164642397349255e+01 -2.2786955139900506e+01 -3.2105045860125003e+01 0 0.0000000000000000e+00 5.3961479472523866e-01 9.3854102312371547e-03 -4.1980171372089196e-02 5.0000000000000000e+00 5.8320000000000005e-01 4 0 1
5859 1 -8.4246894277019670e+00 -2.2305601837384121e+01 -3.1145791979074801e+01 0 0.0000000000000000e+00 3.2159880169248123e-01 1.8299189509489219e-01 3.9511753388016091e-01 5.0000000000000000e+00 5.8320000000000005e-01 -3 -1 1